
                           ***********************       
                           *  WELCOME TO SIESTA  *       
                           ***********************       

reinit: Reading from input.fdf

reinit: -----------------------------------------------------------------------
reinit: System Name: 
reinit: -----------------------------------------------------------------------
reinit: System Label: Phenol
reinit: -----------------------------------------------------------------------
Siesta Version: siesta-4.1--736
Architecture  : unknown
Compiler flags: gfortran -O3 -fPIC -ftree-vectorize -fopenmp
PP flags      : -DFC_HAVE_ABORT
Libraries     : -L/usr/local/opt/openblas/lib -lopenblas -fopenmp
SERIAL version

* Running in serial mode
* Running 4 OpenMP threads.
* Running 4 processes.
* OpenMP version 201511
* OpenMP runtime schedule DYNAMIC, chunks 1
** OpenMP runtime schedule DYNAMIC, chunks 32
>> Start of run:  22-MAR-2019  11:26:12

initatom: Reading input for the pseudopotentials and atomic orbitals ----------
Species number:   1 Atomic number:    6 Label: C.gga
Species number:   2 Atomic number:    1 Label: H.gga
Species number:   3 Atomic number:    8 Label: O.gga

Ground state valence configuration:   2s02  2p02
Reading pseudopotential information in formatted form from C.gga.psf

Valence configuration for pseudopotential generation:
2s( 2.00) rc: 1.54
2p( 2.00) rc: 1.54
3d( 0.00) rc: 1.54
4f( 0.00) rc: 1.54
Ground state valence configuration:   1s01
Reading pseudopotential information in formatted form from H.gga.psf

Valence configuration for pseudopotential generation:
1s( 1.00) rc: 1.31
2p( 0.00) rc: 1.31
3d( 0.00) rc: 0.37
4f( 0.00) rc: 1.31
Ground state valence configuration:   2s02  2p04
Reading pseudopotential information in formatted form from O.gga.psf

Valence configuration for pseudopotential generation:
2s( 2.00) rc: 1.47
2p( 4.00) rc: 1.47
3d( 0.00) rc: 1.47
4f( 0.00) rc: 1.47
For C.gga, standard SIESTA heuristics set lmxkb to 3
 (one more than the basis l, including polarization orbitals).
Use PS.lmax or PS.KBprojectors blocks to override.
For H.gga, standard SIESTA heuristics set lmxkb to 2
 (one more than the basis l, including polarization orbitals).
Use PS.lmax or PS.KBprojectors blocks to override.
For O.gga, standard SIESTA heuristics set lmxkb to 3
 (one more than the basis l, including polarization orbitals).
Use PS.lmax or PS.KBprojectors blocks to override.

<basis_specs>
===============================================================================
C.gga                Z=   6    Mass=  12.010        Charge= 0.17977+309
Lmxo=1 Lmxkb= 3    BasisType=split      Semic=F
L=0  Nsemic=0  Cnfigmx=2
          n=1  nzeta=2  polorb=0
            splnorm:   0.15000    
               vcte:    0.0000    
               rinn:    0.0000    
               qcoe:    0.0000    
               qyuk:    0.0000    
               qwid:   0.10000E-01
                rcs:    0.0000      0.0000    
            lambdas:    1.0000      1.0000    
L=1  Nsemic=0  Cnfigmx=2
          n=1  nzeta=2  polorb=1
            splnorm:   0.15000    
               vcte:    0.0000    
               rinn:    0.0000    
               qcoe:    0.0000    
               qyuk:    0.0000    
               qwid:   0.10000E-01
                rcs:    0.0000      0.0000    
            lambdas:    1.0000      1.0000    
-------------------------------------------------------------------------------
L=0  Nkbl=1  erefs: 0.17977+309
L=1  Nkbl=1  erefs: 0.17977+309
L=2  Nkbl=1  erefs: 0.17977+309
L=3  Nkbl=1  erefs: 0.17977+309
===============================================================================
</basis_specs>

atom: Called for C.gga                 (Z =   6)

read_vps: Pseudopotential generation method:
read_vps: ATM3      Troullier-Martins                       
Total valence charge:    4.00000

read_vps: Pseudopotential includes a core correction:
read_vps: Pseudo-core for xc-correction

xc_check: Exchange-correlation functional:
xc_check: GGA Perdew, Burke & Ernzerhof 1996
V l=0 = -2*Zval/r beyond r=  1.5227
V l=1 = -2*Zval/r beyond r=  1.5227
V l=2 = -2*Zval/r beyond r=  1.5227
V l=3 = -2*Zval/r beyond r=  1.5038
All V_l potentials equal beyond r=  1.5227
This should be close to max(r_c) in ps generation
All pots = -2*Zval/r beyond r=  1.5227

VLOCAL1: 99.0% of the norm of Vloc inside     18.722 Ry
VLOCAL1: 99.9% of the norm of Vloc inside     42.668 Ry
atom: Maximum radius for 4*pi*r*r*local-pseudopot. charge    1.83678
atom: Maximum radius for r*vlocal+2*Zval:    1.58088
GHOST: No ghost state for L =  0
GHOST: No ghost state for L =  1
GHOST: No ghost state for L =  2
GHOST: No ghost state for L =  3

KBgen: Kleinman-Bylander projectors: 
   l= 0   rc=  1.704034   el= -1.009801   Ekb=  5.335044   kbcos=  0.316824
   l= 1   rc=  1.704034   el= -0.388707   Ekb= -3.785862   kbcos= -0.366464
   l= 2   rc=  1.791422   el=  0.001971   Ekb= -0.970471   kbcos= -0.009212
   l= 3   rc=  1.859892   el=  0.003065   Ekb= -0.399525   kbcos= -0.001223

KBgen: Total number of  Kleinman-Bylander projectors:   16
atom: -------------------------------------------------------------------------

atom: SANKEY-TYPE ORBITALS:
atom: Selected multiple-zeta basis: split     

SPLIT: Orbitals with angular momentum L= 0

SPLIT: Basis orbitals for state 2s

SPLIT: PAO cut-off radius determined from an
SPLIT: energy shift=  0.002205 Ry

   izeta = 1
                 lambda =    1.000000
                     rc =    5.382558
                 energy =   -1.007983
                kinetic =    0.829025
    potential(screened) =   -1.837009
       potential(ionic) =   -5.376592

   izeta = 2
                 rmatch =    3.475094
              splitnorm =    0.150000
                 energy =   -0.876935
                kinetic =    1.279964
    potential(screened) =   -2.156899
       potential(ionic) =   -5.943761

SPLIT: Orbitals with angular momentum L= 1

SPLIT: Basis orbitals for state 2p

SPLIT: PAO cut-off radius determined from an
SPLIT: energy shift=  0.002205 Ry

   izeta = 1
                 lambda =    1.000000
                     rc =    6.740804
                 energy =   -0.386704
                kinetic =    2.327316
    potential(screened) =   -2.714020
       potential(ionic) =   -6.100339

   izeta = 2
                 rmatch =    3.792903
              splitnorm =    0.150000
                 energy =   -0.270625
                kinetic =    3.420974
    potential(screened) =   -3.691599
       potential(ionic) =   -7.453004

POLgen: Perturbative polarization orbital with L=  2

POLgen: Polarization orbital for state 2p

   izeta = 1
                     rc =    6.740804
                 energy =    0.975645
                kinetic =    2.058046
    potential(screened) =   -1.082401
       potential(ionic) =   -3.782952
atom: Total number of Sankey-type orbitals: 13

atm_pop: Valence configuration (for local Pseudopot. screening):
 2s( 2.00)                                                            
 2p( 2.00)                                                            
Vna: chval, zval:    4.00000   4.00000

Vna:  Cut-off radius for the neutral-atom potential:   6.740804
comcore: Pseudo-core radius Rcore=  1.791422

atom: _________________________________________________________________________

<basis_specs>
===============================================================================
H.gga                Z=   1    Mass=  1.0100        Charge= 0.17977+309
Lmxo=0 Lmxkb= 2    BasisType=split      Semic=F
L=0  Nsemic=0  Cnfigmx=1
          n=1  nzeta=2  polorb=1
            splnorm:   0.15000    
               vcte:    0.0000    
               rinn:    0.0000    
               qcoe:    0.0000    
               qyuk:    0.0000    
               qwid:   0.10000E-01
                rcs:    0.0000      0.0000    
            lambdas:    1.0000      1.0000    
-------------------------------------------------------------------------------
L=0  Nkbl=1  erefs: 0.17977+309
L=1  Nkbl=1  erefs: 0.17977+309
L=2  Nkbl=1  erefs: 0.17977+309
===============================================================================
</basis_specs>

atom: Called for H.gga                 (Z =   1)

read_vps: Pseudopotential generation method:
read_vps: ATM3      Troullier-Martins                       
Total valence charge:    1.00000

xc_check: Exchange-correlation functional:
xc_check: GGA Perdew, Burke & Ernzerhof 1996
V l=0 = -2*Zval/r beyond r=  1.2977
V l=1 = -2*Zval/r beyond r=  1.2815
V l=2 = -2*Zval/r beyond r=  1.2656
All V_l potentials equal beyond r=  1.2977
This should be close to max(r_c) in ps generation
All pots = -2*Zval/r beyond r=  1.2977

VLOCAL1: 99.0% of the norm of Vloc inside     25.776 Ry
VLOCAL1: 99.9% of the norm of Vloc inside     58.745 Ry
atom: Maximum radius for 4*pi*r*r*local-pseudopot. charge    1.52711
atom: Maximum radius for r*vlocal+2*Zval:    1.28155
GHOST: No ghost state for L =  0
GHOST: No ghost state for L =  1
GHOST: No ghost state for L =  2

KBgen: Kleinman-Bylander projectors: 
   l= 0   rc=  1.434438   el= -0.477200   Ekb= -1.957043   kbcos= -0.361614
   l= 1   rc=  1.508111   el=  0.001076   Ekb= -0.424224   kbcos= -0.025441
   l= 2   rc=  1.527112   el=  0.002010   Ekb= -0.378578   kbcos= -0.002010

KBgen: Total number of  Kleinman-Bylander projectors:    9
atom: -------------------------------------------------------------------------

atom: SANKEY-TYPE ORBITALS:
atom: Selected multiple-zeta basis: split     

SPLIT: Orbitals with angular momentum L= 0

SPLIT: Basis orbitals for state 1s

SPLIT: PAO cut-off radius determined from an
SPLIT: energy shift=  0.002205 Ry

   izeta = 1
                 lambda =    1.000000
                     rc =    6.518340
                 energy =   -0.475328
                kinetic =    0.879188
    potential(screened) =   -1.354517
       potential(ionic) =   -1.873657

   izeta = 2
                 rmatch =    4.103729
              splitnorm =    0.150000
                 energy =   -0.382914
                kinetic =    1.427335
    potential(screened) =   -1.810249
       potential(ionic) =   -2.357086

POLgen: Perturbative polarization orbital with L=  1

POLgen: Polarization orbital for state 1s

   izeta = 1
                     rc =    6.518340
                 energy =    0.536347
                kinetic =    1.136516
    potential(screened) =   -0.600169
       potential(ionic) =   -1.065665
atom: Total number of Sankey-type orbitals:  5

atm_pop: Valence configuration (for local Pseudopot. screening):
 1s( 1.00)                                                            
Vna: chval, zval:    1.00000   1.00000

Vna:  Cut-off radius for the neutral-atom potential:   6.518340

atom: _________________________________________________________________________

<basis_specs>
===============================================================================
O.gga                Z=   8    Mass=  16.000        Charge= 0.17977+309
Lmxo=1 Lmxkb= 3    BasisType=split      Semic=F
L=0  Nsemic=0  Cnfigmx=2
          n=1  nzeta=2  polorb=0
            splnorm:   0.15000    
               vcte:    0.0000    
               rinn:    0.0000    
               qcoe:    0.0000    
               qyuk:    0.0000    
               qwid:   0.10000E-01
                rcs:    0.0000      0.0000    
            lambdas:    1.0000      1.0000    
L=1  Nsemic=0  Cnfigmx=2
          n=1  nzeta=2  polorb=1
            splnorm:   0.15000    
               vcte:    0.0000    
               rinn:    0.0000    
               qcoe:    0.0000    
               qyuk:    0.0000    
               qwid:   0.10000E-01
                rcs:    0.0000      0.0000    
            lambdas:    1.0000      1.0000    
-------------------------------------------------------------------------------
L=0  Nkbl=1  erefs: 0.17977+309
L=1  Nkbl=1  erefs: 0.17977+309
L=2  Nkbl=1  erefs: 0.17977+309
L=3  Nkbl=1  erefs: 0.17977+309
===============================================================================
</basis_specs>

atom: Called for O.gga                 (Z =   8)

read_vps: Pseudopotential generation method:
read_vps: ATM3      Troullier-Martins                       
Total valence charge:    6.00000

read_vps: Pseudopotential includes a core correction:
read_vps: Pseudo-core for xc-correction

xc_check: Exchange-correlation functional:
xc_check: GGA Perdew, Burke & Ernzerhof 1996
V l=0 = -2*Zval/r beyond r=  1.4482
V l=1 = -2*Zval/r beyond r=  1.4482
V l=2 = -2*Zval/r beyond r=  1.4482
V l=3 = -2*Zval/r beyond r=  1.4482
All V_l potentials equal beyond r=  1.4482
This should be close to max(r_c) in ps generation
All pots = -2*Zval/r beyond r=  1.4482

VLOCAL1: 99.0% of the norm of Vloc inside     20.696 Ry
VLOCAL1: 99.9% of the norm of Vloc inside     47.167 Ry
atom: Maximum radius for 4*pi*r*r*local-pseudopot. charge    1.74697
atom: Maximum radius for r*vlocal+2*Zval:    1.52250
GHOST: No ghost state for L =  0
GHOST: No ghost state for L =  1
GHOST: No ghost state for L =  2
GHOST: No ghost state for L =  3

KBgen: Kleinman-Bylander projectors: 
   l= 0   rc=  1.620715   el= -1.757696   Ekb=  4.880948   kbcos=  0.293490
   l= 1   rc=  1.600578   el= -0.664256   Ekb= -6.909822   kbcos= -0.499892
   l= 2   rc=  1.703827   el=  0.002031   Ekb= -1.539219   kbcos= -0.006778
   l= 3   rc=  1.746967   el=  0.003153   Ekb= -0.568983   kbcos= -0.000967

KBgen: Total number of  Kleinman-Bylander projectors:   16
atom: -------------------------------------------------------------------------

atom: SANKEY-TYPE ORBITALS:
atom: Selected multiple-zeta basis: split     

SPLIT: Orbitals with angular momentum L= 0

SPLIT: Basis orbitals for state 2s

SPLIT: PAO cut-off radius determined from an
SPLIT: energy shift=  0.002205 Ry

   izeta = 1
                 lambda =    1.000000
                     rc =    4.139122
                 energy =   -1.755549
                kinetic =    1.529685
    potential(screened) =   -3.285233
       potential(ionic) =  -11.160563

   izeta = 2
                 rmatch =    2.541963
              splitnorm =    0.150000
                 energy =   -1.517776
                kinetic =    2.348222
    potential(screened) =   -3.865999
       potential(ionic) =  -12.356890

SPLIT: Orbitals with angular momentum L= 1

SPLIT: Basis orbitals for state 2p

SPLIT: PAO cut-off radius determined from an
SPLIT: energy shift=  0.002205 Ry

   izeta = 1
                 lambda =    1.000000
                     rc =    5.314825
                 energy =   -0.662390
                kinetic =    4.472446
    potential(screened) =   -5.134836
       potential(ionic) =  -12.694617

   izeta = 2
                 rmatch =    2.705925
              splitnorm =    0.150000
                 energy =   -0.427537
                kinetic =    6.597007
    potential(screened) =   -7.024544
       potential(ionic) =  -15.479186

POLgen: Perturbative polarization orbital with L=  2

POLgen: Polarization orbital for state 2p

   izeta = 1
                     rc =    5.314825
                 energy =    1.979175
                kinetic =    4.015874
    potential(screened) =   -2.036699
       potential(ionic) =   -7.919671
atom: Total number of Sankey-type orbitals: 13

atm_pop: Valence configuration (for local Pseudopot. screening):
 2s( 2.00)                                                            
 2p( 4.00)                                                            
Vna: chval, zval:    6.00000   6.00000

Vna:  Cut-off radius for the neutral-atom potential:   5.314825
comcore: Pseudo-core radius Rcore=  1.377587

atom: _________________________________________________________________________

prinput: Basis input ----------------------------------------------------------

PAO.BasisType split     

%block ChemicalSpeciesLabel
    1    6 C.gga                   # Species index, atomic number, species label
    2    1 H.gga                   # Species index, atomic number, species label
    3    8 O.gga                   # Species index, atomic number, species label
%endblock ChemicalSpeciesLabel

%block PAO.Basis                 # Define Basis set
C.gga                 2                    # Species label, number of l-shells
 n=2   0   2                         # n, l, Nzeta 
   5.383      3.475   
   1.000      1.000   
 n=2   1   2 P   1                   # n, l, Nzeta, Polarization, NzetaPol
   6.741      3.793   
   1.000      1.000   
H.gga                 1                    # Species label, number of l-shells
 n=1   0   2 P   1                   # n, l, Nzeta, Polarization, NzetaPol
   6.518      4.104   
   1.000      1.000   
O.gga                 2                    # Species label, number of l-shells
 n=2   0   2                         # n, l, Nzeta 
   4.139      2.542   
   1.000      1.000   
 n=2   1   2 P   1                   # n, l, Nzeta, Polarization, NzetaPol
   5.315      2.706   
   1.000      1.000   
%endblock PAO.Basis

prinput: ----------------------------------------------------------------------

coor:   Atomic-coordinates input format  =     Cartesian coordinates
coor:                                          (in Angstroms)

siesta: Atomic coordinates (Bohr) and species
siesta:      4.13884   2.11496   0.00000  1        1
siesta:      6.44149   3.41145   0.00000  1        2
siesta:      6.47265   6.05474   0.00000  1        3
siesta:      4.19960   7.40994   0.00000  1        4
siesta:      1.88980   6.10327   0.00000  1        5
siesta:      1.86435   3.46007   0.00000  1        6
siesta:      2.71593  10.95093   0.00000  2        7
siesta:      4.11709   0.06975   0.00000  2        8
siesta:      8.20111   2.36877   0.00000  2        9
siesta:      8.26045   7.04989   0.00000  2       10
siesta:      0.12145   7.13257   0.00000  2       11
siesta:      0.08288   2.45511   0.00000  2       12
siesta:      4.25190   9.95775   0.00000  3       13

siesta: System type = molecule  

initatomlists: Number of atoms, orbitals, and projectors:     13   121   166

coxmol: Writing XMOL coordinates into file Phenol.xyz                                                          

siesta: ******************** Simulation parameters ****************************
siesta:
siesta: The following are some of the parameters of the simulation.
siesta: A complete list of the parameters used, including default values,
siesta: can be found in file out.fdf
siesta:
redata: Spin configuration                          = none
redata: Number of spin components                   = 1
redata: Time-Reversal Symmetry                      = T
redata: Spin-spiral                                 = F
redata: Long output                                 =   F
redata: Number of Atomic Species                    =        3
redata: Charge density info will appear in .RHO file
redata: Write Mulliken Pop.                         = NO
redata: Mesh Cutoff                                 =   300.0000 Ry
redata: Net charge of the system                    =     0.0000 |e|
redata: Min. number of SCF Iter                     =        0
redata: Max. number of SCF Iter                     =     1000
redata: SCF mix quantity                            = Hamiltonian
redata: Mix DM or H after convergence               =   F
redata: Recompute H after scf cycle                 =   F
redata: Mix DM in first SCF step                    =   T
redata: Write Pulay info on disk                    =   F
redata: New DM Mixing Weight                        =     0.2500
redata: New DM Occupancy tolerance                  = 0.000000000001
redata: No kicks to SCF
redata: DM Mixing Weight for Kicks                  =     0.5000
redata: Require Harris convergence for SCF          =   F
redata: Harris energy tolerance for SCF             =     0.000100 eV
redata: Require DM convergence for SCF              =   T
redata: DM tolerance for SCF                        =     0.0001
redata: Require EDM convergence for SCF             =   F
redata: EDM tolerance for SCF                       =     0.001000 eV
redata: Require H convergence for SCF               =   T
redata: Hamiltonian tolerance for SCF               =     0.001000 eV
redata: Require (free) Energy convergence for SCF   =   F
redata: (free) Energy tolerance for SCF             =     0.000100 eV
redata: Using Saved Data (generic)                  =   F
redata: Use continuation files for DM               =   F
redata: Neglect nonoverlap interactions             =   F
redata: Method of Calculation                       = Diagonalization
redata: Divide and Conquer                          =   T
redata: Electronic Temperature                      =   299.9869 K
redata: Fix the spin of the system                  =   F
redata: Dynamics option                             = FIRE coord. optimization
redata: Variable cell                               =   F
redata: Use continuation files for CG               =   F
redata: Max atomic displ per move                   =     0.1058 Ang
redata: Maximum number of CG moves                  =     1000
redata: Force tolerance                             =     0.0100 eV/Ang
mix.SCF: Pulay mixing                            = Pulay
mix.SCF:    Variant                              = stable
mix.SCF:    History steps                        = 2
mix.SCF:    Linear mixing weight                 =     0.250000
mix.SCF:    Mixing weight                        =     0.250000
mix.SCF:    SVD condition                        = 0.1000E-07
redata: ***********************************************************************

%block SCF.Mixers
  Pulay
%endblock SCF.Mixers

%block SCF.Mixer.Pulay
  # Mixing method
  method pulay
  variant stable

  # Mixing options
  weight 0.2500
  weight.linear 0.2500
  history 2
%endblock SCF.Mixer.Pulay

DM_history_depth set to one: no extrapolation allowed by default for geometry relaxation
Size of DM history Fstack: 1
Total number of electrons:    36.000000
Total ionic charge:    36.000000
 Kpoints in:            1 . Kpoints trimmed:            1

siesta: k-grid: Number of k-points =     1
siesta: k-grid: Cutoff (effective) =    10.000 Ang
siesta: k-grid: Supercell and displacements
siesta: k-grid:    1   0   0      0.000
siesta: k-grid:    0   1   0      0.000
siesta: k-grid:    0   0   1      0.000


                     ====================================
                        Begin FIRE opt. move =      0
                     ====================================

outcoor: Atomic coordinates (Ang):                          
    2.19018000    1.11919000    0.00000000   1       1  C.gga
    3.40869000    1.80526000    0.00000000   1       2  C.gga
    3.42518000    3.20403000    0.00000000   1       3  C.gga
    2.22233000    3.92117000    0.00000000   1       4  C.gga
    1.00004000    3.22971000    0.00000000   1       5  C.gga
    0.98657000    1.83099000    0.00000000   1       6  C.gga
    1.43721000    5.79498000    0.00000000   2       7  H.gga
    2.17867000    0.03691000    0.00000000   2       8  H.gga
    4.33984000    1.25350000    0.00000000   2       9  H.gga
    4.37124000    3.73064000    0.00000000   2      10  H.gga
    0.06427000    3.77439000    0.00000000   2      11  H.gga
    0.04386000    1.29919000    0.00000000   2      12  H.gga
    2.25001000    5.26941000    0.00000000   3      13  O.gga

outcell: Unit cell vectors (Ang):
       20.000000    0.000000    0.000000
        0.000000   20.000000    0.000000
        0.000000    0.000000   20.000000

outcell: Cell vector modules (Ang)   :   20.000000   20.000000   20.000000
outcell: Cell angles (23,13,12) (deg):     90.0000     90.0000     90.0000
outcell: Cell volume (Ang**3)        :   8000.0000
<dSpData1D:S at geom step 0
  <sparsity:sparsity for geom step 0
    nrows_g=121 nrows=121 sparsity=.9985 nnzs=14619, refcount: 7>
  <dData1D:(new from dSpData1D) n=14619, refcount: 1>
refcount: 1>
new_DM -- step:     1
Initializing Density Matrix...
DM filled with atomic data:
<dSpData2D:DM initialized from atoms
  <sparsity:sparsity for geom step 0
    nrows_g=121 nrows=121 sparsity=.9985 nnzs=14619, refcount: 8>
  <dData2D:DM n=14619 m=1, refcount: 1>
refcount: 1>

No. of atoms with KB's overlaping orbs in proc 0. Max # of overlaps:      13     118
New grid distribution:   1
           1       1:  108    1:  108    1:  108

InitMesh: MESH =   216 x   216 x   216 =    10077696
InitMesh: (bp) =   108 x   108 x   108 =     1259712
InitMesh: Mesh cutoff (required, used) =   300.000   322.366 Ry
ExtMesh (bp) on 0 =   188 x   188 x   188 =     6644672
PhiOnMesh: Number of (b)points on node 0 =              1259712
PhiOnMesh: nlist on node 0 =              2631478

stepf: Fermi-Dirac step function

siesta: Program's energy decomposition (eV):
siesta: Ebs     =      -344.576689
siesta: Eions   =      2250.705553
siesta: Ena     =       437.721806
siesta: Ekin    =      1102.942223
siesta: Enl     =      -208.796467
siesta: Eso     =         0.000000
siesta: Eldau   =         0.000000
siesta: DEna    =       -89.938200
siesta: DUscf   =        14.261340
siesta: DUext   =         0.000000
siesta: Exc     =      -516.434064
siesta: eta*DQ  =         0.000000
siesta: Emadel  =         0.000000
siesta: Emeta   =         0.000000
siesta: Emolmec =         0.000000
siesta: Ekinion =         0.000000
siesta: Eharris =     -1501.243932
siesta: Etot    =     -1510.948914
siesta: FreeEng =     -1510.948914

        iscf     Eharris(eV)        E_KS(eV)     FreeEng(eV)     dDmax    Ef(eV) dHmax(eV)
   scf:    1    -1501.243932    -1510.948914    -1510.948914  1.981527 -8.456082 10.306345
timer: Routine,Calls,Time,% = IterSCF        1       4.879  43.00
   scf:    2    -1517.139230    -1514.422590    -1514.422590  0.135728 -4.893288  4.863545
   scf:    3    -1515.802749    -1515.449627    -1515.449627  0.127516 -3.238067  0.762522
   scf:    4    -1515.528109    -1515.492389    -1515.492389  0.009057 -3.220560  0.522410
   scf:    5    -1515.520476    -1515.508503    -1515.508503  0.009633 -3.175778  0.235011
   scf:    6    -1515.512135    -1515.510513    -1515.510513  0.005920 -3.123677  0.093759
   scf:    7    -1515.510864    -1515.510737    -1515.510737  0.004034 -3.074399  0.030214
   scf:    8    -1515.510961    -1515.510860    -1515.510860  0.000374 -3.071118  0.019974
   scf:    9    -1515.510937    -1515.510904    -1515.510904  0.000450 -3.070035  0.010220
   scf:   10    -1515.510914    -1515.510909    -1515.510909  0.000249 -3.070620  0.005267
   scf:   11    -1515.510912    -1515.510911    -1515.510911  0.000269 -3.071562  0.000877
   scf:   12    -1515.510911    -1515.510911    -1515.510911  0.000019 -3.071732  0.000515

SCF Convergence by DM+H criterion
max |DM_out - DM_in|         :     0.0000185880
max |H_out - H_in|      (eV) :     0.0005148364
SCF cycle converged after 12 iterations

Using DM_out to compute the final energy and forces
No. of atoms with KB's overlaping orbs in proc 0. Max # of overlaps:      13     118

siesta: E_KS(eV) =            -1515.5109

siesta: E_KS - E_eggbox =     -1515.5109

siesta: Atomic forces (eV/Ang):
----------------------------------------
   Tot    0.047125   -0.026207    0.000000
----------------------------------------
   Max    1.738037
   Res    0.565159    sqrt( Sum f_i^2 / 3N )
----------------------------------------
   Max    1.738037    constrained

Stress-tensor-Voigt (kbar):       -1.20       -1.05        0.00       -0.25       -0.00       -0.00
(Free)E + p*V (eV/cell)    -1511.7825
Target enthalpy (eV/cell)    -1515.5109
FIRE: No of elements:     39

                     ====================================
                        Begin FIRE opt. move =      1
                     ====================================

outcoor: Atomic coordinates (Ang):                          
    2.19019097    1.11921835    0.00000000   1       1  C.gga
    3.40820272    1.80555152    0.00000000   1       2  C.gga
    3.42533506    3.20393921    0.00000000   1       3  C.gga
    2.22119619    3.92106259   -0.00000000   1       4  C.gga
    1.00020350    3.22921344    0.00000000   1       5  C.gga
    0.98691112    1.83123993   -0.00000000   1       6  C.gga
    1.43665830    5.79433121   -0.00000000   2       7  H.gga
    2.17865711    0.03608462    0.00000000   2       8  H.gga
    4.34057486    1.25312551    0.00000000   2       9  H.gga
    4.37189341    3.73113885   -0.00000000   2      10  H.gga
    0.06357151    3.77489012   -0.00000000   2      11  H.gga
    0.04311918    1.29880260    0.00000000   2      12  H.gga
    2.25161972    5.27074775    0.00000000   3      13  O.gga

outcell: Unit cell vectors (Ang):
       20.000000    0.000000    0.000000
        0.000000   20.000000    0.000000
        0.000000    0.000000   20.000000

outcell: Cell vector modules (Ang)   :   20.000000   20.000000   20.000000
outcell: Cell angles (23,13,12) (deg):     90.0000     90.0000     90.0000
outcell: Cell volume (Ang**3)        :   8000.0000
<dSpData1D:S at geom step 1
  <sparsity:sparsity for geom step 1
    nrows_g=121 nrows=121 sparsity=.9985 nnzs=14619, refcount: 7>
  <dData1D:(new from dSpData1D) n=14619, refcount: 1>
refcount: 1>
new_DM -- step:     2
Re-using DM from previous geometries...
Number of DMs in history: 1
 DM extrapolation coefficients: 
1   1.00000
New DM after history re-use:
<dSpData2D:SpM extrapolated using coords
  <sparsity:sparsity for geom step 1
    nrows_g=121 nrows=121 sparsity=.9985 nnzs=14619, refcount: 8>
  <dData2D:(temp array for extrapolation) n=14619 m=1, refcount: 1>
refcount: 1>
No. of atoms with KB's overlaping orbs in proc 0. Max # of overlaps:      13     118
New grid distribution:   1
           1       1:  108    1:  108    1:  108

InitMesh: MESH =   216 x   216 x   216 =    10077696
InitMesh: (bp) =   108 x   108 x   108 =     1259712
InitMesh: Mesh cutoff (required, used) =   300.000   322.366 Ry
ExtMesh (bp) on 0 =   188 x   188 x   188 =     6644672
PhiOnMesh: Number of (b)points on node 0 =              1259712
PhiOnMesh: nlist on node 0 =              2631485

        iscf     Eharris(eV)        E_KS(eV)     FreeEng(eV)     dDmax    Ef(eV) dHmax(eV)
   scf:    1    -1515.556287    -1515.522096    -1515.522096  0.005524 -3.057830  0.031945
   scf:    2    -1515.521632    -1515.521981    -1515.521981  0.001352 -3.058980  0.060847
   scf:    3    -1515.522187    -1515.522138    -1515.522138  0.000898 -3.058986  0.001681
   scf:    4    -1515.522139    -1515.522138    -1515.522138  0.000038 -3.059136  0.000833

SCF Convergence by DM+H criterion
max |DM_out - DM_in|         :     0.0000381817
max |H_out - H_in|      (eV) :     0.0008327231
SCF cycle converged after 4 iterations

Using DM_out to compute the final energy and forces
No. of atoms with KB's overlaping orbs in proc 0. Max # of overlaps:      13     118

siesta: E_KS(eV) =            -1515.5221

siesta: Atomic forces (eV/Ang):
----------------------------------------
   Tot    0.045462   -0.022661   -0.000000
----------------------------------------
   Max    1.672802
   Res    0.535483    sqrt( Sum f_i^2 / 3N )
----------------------------------------
   Max    1.672802    constrained

Stress-tensor-Voigt (kbar):       -1.17       -1.03        0.00       -0.26       -0.00       -0.00
(Free)E + p*V (eV/cell)    -1511.8728
Target enthalpy (eV/cell)    -1515.5221

                     ====================================
                        Begin FIRE opt. move =      2
                     ====================================

outcoor: Atomic coordinates (Ang):                          
    2.19021072    1.11926335    0.00000000   1       1  C.gga
    3.40681574    1.80639182   -0.00000000   1       2  C.gga
    3.42577397    3.20370942    0.00000000   1       3  C.gga
    2.21790330    3.92078625   -0.00000000   1       4  C.gga
    1.00061685    3.22779357    0.00000000   1       5  C.gga
    0.98788281    1.83192229   -0.00000000   1       6  C.gga
    1.43503348    5.79237275   -0.00000000   2       7  H.gga
    2.17861884    0.03363665    0.00000000   2       8  H.gga
    4.34273766    1.25202634    0.00000000   2       9  H.gga
    4.37383247    3.73262533   -0.00000000   2      10  H.gga
    0.06150938    3.77636583   -0.00000000   2      11  H.gga
    0.04093447    1.29766284    0.00000000   2      12  H.gga
    2.25639354    5.27472017    0.00000000   3      13  O.gga

outcell: Unit cell vectors (Ang):
       20.000000    0.000000    0.000000
        0.000000   20.000000    0.000000
        0.000000    0.000000   20.000000

outcell: Cell vector modules (Ang)   :   20.000000   20.000000   20.000000
outcell: Cell angles (23,13,12) (deg):     90.0000     90.0000     90.0000
outcell: Cell volume (Ang**3)        :   8000.0000
<dSpData1D:S at geom step 2
  <sparsity:sparsity for geom step 2
    nrows_g=121 nrows=121 sparsity=.9985 nnzs=14619, refcount: 7>
  <dData1D:(new from dSpData1D) n=14619, refcount: 1>
refcount: 1>
new_DM -- step:     3
Re-using DM from previous geometries...
Number of DMs in history: 1
 DM extrapolation coefficients: 
1   1.00000
New DM after history re-use:
<dSpData2D:SpM extrapolated using coords
  <sparsity:sparsity for geom step 2
    nrows_g=121 nrows=121 sparsity=.9985 nnzs=14619, refcount: 8>
  <dData2D:(temp array for extrapolation) n=14619 m=1, refcount: 1>
refcount: 1>
No. of atoms with KB's overlaping orbs in proc 0. Max # of overlaps:      13     118
New grid distribution:   1
           1       1:  108    1:  108    1:  108

InitMesh: MESH =   216 x   216 x   216 =    10077696
InitMesh: (bp) =   108 x   108 x   108 =     1259712
InitMesh: Mesh cutoff (required, used) =   300.000   322.366 Ry
ExtMesh (bp) on 0 =   188 x   188 x   188 =     6644672
PhiOnMesh: Number of (b)points on node 0 =              1259712
PhiOnMesh: nlist on node 0 =              2631399

        iscf     Eharris(eV)        E_KS(eV)     FreeEng(eV)     dDmax    Ef(eV) dHmax(eV)
   scf:    1    -1515.651584    -1515.551330    -1515.551330  0.016129 -3.018469  0.093562
   scf:    2    -1515.547193    -1515.550303    -1515.550303  0.004144 -3.020470  0.177594
   scf:    3    -1515.552136    -1515.551702    -1515.551702  0.002765 -3.021477  0.004966
   scf:    4    -1515.551706    -1515.551704    -1515.551704  0.000112 -3.021908  0.002348
   scf:    5    -1515.551705    -1515.551705    -1515.551705  0.000096 -3.021931  0.001272
   scf:    6    -1515.551705    -1515.551705    -1515.551705  0.000047 -3.021809  0.000750

SCF Convergence by DM+H criterion
max |DM_out - DM_in|         :     0.0000471755
max |H_out - H_in|      (eV) :     0.0007500030
SCF cycle converged after 6 iterations

Using DM_out to compute the final energy and forces
No. of atoms with KB's overlaping orbs in proc 0. Max # of overlaps:      13     118

siesta: E_KS(eV) =            -1515.5517

siesta: Atomic forces (eV/Ang):
----------------------------------------
   Tot    0.040956   -0.015435   -0.000000
----------------------------------------
   Max    1.474059
   Res    0.455146    sqrt( Sum f_i^2 / 3N )
----------------------------------------
   Max    1.474059    constrained

Stress-tensor-Voigt (kbar):       -1.09       -0.97        0.00       -0.28        0.00       -0.00
(Free)E + p*V (eV/cell)    -1512.1313
Target enthalpy (eV/cell)    -1515.5517

                     ====================================
                        Begin FIRE opt. move =      3
                     ====================================

outcoor: Atomic coordinates (Ang):                          
    2.19018317    1.11915184    0.00000000   1       1  C.gga
    3.40484452    1.80763766   -0.00000000   1       2  C.gga
    3.42638681    3.20352194    0.00000000   1       3  C.gga
    2.21291145    3.92054275   -0.00000000   1       4  C.gga
    1.00094789    3.22574520    0.00000000   1       5  C.gga
    0.98926670    1.83274851   -0.00000000   1       6  C.gga
    1.43246081    5.78904047   -0.00000000   2       7  H.gga
    2.17855672    0.02967054    0.00000000   2       8  H.gga
    4.34616282    1.25029994    0.00000000   2       9  H.gga
    4.37697766    3.73506589   -0.00000000   2      10  H.gga
    0.05821232    3.77872046   -0.00000000   2      11  H.gga
    0.03745340    1.29585929    0.00000000   2      12  H.gga
    2.26410970    5.28116985    0.00000000   3      13  O.gga

outcell: Unit cell vectors (Ang):
       20.000000    0.000000    0.000000
        0.000000   20.000000    0.000000
        0.000000    0.000000   20.000000

outcell: Cell vector modules (Ang)   :   20.000000   20.000000   20.000000
outcell: Cell angles (23,13,12) (deg):     90.0000     90.0000     90.0000
outcell: Cell volume (Ang**3)        :   8000.0000
<dSpData1D:S at geom step 3
  <sparsity:sparsity for geom step 3
    nrows_g=121 nrows=121 sparsity=.9985 nnzs=14619, refcount: 7>
  <dData1D:(new from dSpData1D) n=14619, refcount: 1>
refcount: 1>
new_DM -- step:     4
Re-using DM from previous geometries...
Number of DMs in history: 1
 DM extrapolation coefficients: 
1   1.00000
New DM after history re-use:
<dSpData2D:SpM extrapolated using coords
  <sparsity:sparsity for geom step 3
    nrows_g=121 nrows=121 sparsity=.9985 nnzs=14619, refcount: 8>
  <dData2D:(temp array for extrapolation) n=14619 m=1, refcount: 1>
refcount: 1>
No. of atoms with KB's overlaping orbs in proc 0. Max # of overlaps:      13     118
New grid distribution:   1
           1       1:  108    1:  108    1:  108

InitMesh: MESH =   216 x   216 x   216 =    10077696
InitMesh: (bp) =   108 x   108 x   108 =     1259712
InitMesh: Mesh cutoff (required, used) =   300.000   322.366 Ry
ExtMesh (bp) on 0 =   188 x   188 x   188 =     6644672
PhiOnMesh: Number of (b)points on node 0 =              1259712
PhiOnMesh: nlist on node 0 =              2631309

        iscf     Eharris(eV)        E_KS(eV)     FreeEng(eV)     dDmax    Ef(eV) dHmax(eV)
   scf:    1    -1515.747096    -1515.587828    -1515.587828  0.025325 -2.959551  0.141511
   scf:    2    -1515.577797    -1515.585329    -1515.585329  0.006633 -2.960409  0.265373
   scf:    3    -1515.589762    -1515.588716    -1515.588716  0.004438 -2.963557  0.007845
   scf:    4    -1515.588725    -1515.588721    -1515.588721  0.000184 -2.964197  0.003689
   scf:    5    -1515.588724    -1515.588723    -1515.588723  0.000157 -2.964200  0.002026
   scf:    6    -1515.588724    -1515.588723    -1515.588723  0.000077 -2.963996  0.001171
   scf:    7    -1515.588724    -1515.588723    -1515.588723  0.000069 -2.963802  0.000257

SCF Convergence by DM+H criterion
max |DM_out - DM_in|         :     0.0000685578
max |H_out - H_in|      (eV) :     0.0002567221
SCF cycle converged after 7 iterations

Using DM_out to compute the final energy and forces
No. of atoms with KB's overlaping orbs in proc 0. Max # of overlaps:      13     118

siesta: E_KS(eV) =            -1515.5887

siesta: Atomic forces (eV/Ang):
----------------------------------------
   Tot    0.025750   -0.002275   -0.000000
----------------------------------------
   Max    1.144708
   Res    0.359594    sqrt( Sum f_i^2 / 3N )
----------------------------------------
   Max    1.144708    constrained

Stress-tensor-Voigt (kbar):       -0.97       -0.87        0.00       -0.30        0.00       -0.00
(Free)E + p*V (eV/cell)    -1512.5415
Target enthalpy (eV/cell)    -1515.5887

                     ====================================
                        Begin FIRE opt. move =      4
                     ====================================

outcoor: Atomic coordinates (Ang):                          
    2.19000132    1.11852196    0.00000000   1       1  C.gga
    3.40293803    1.80899185    0.00000000   1       2  C.gga
    3.42695999    3.20374904    0.00000000   1       3  C.gga
    2.20719492    3.92077341   -0.00000000   1       4  C.gga
    1.00051485    3.22368219    0.00000000   1       5  C.gga
    0.99060307    1.83312535    0.00000000   1       6  C.gga
    1.42922218    5.78419571   -0.00000000   2       7  H.gga
    2.17847394    0.02440008   -0.00000000   2       8  H.gga
    4.35051133    1.24814767    0.00000000   2       9  H.gga
    4.38115513    3.73838977   -0.00000000   2      10  H.gga
    0.05393337    3.78175830   -0.00000000   2      11  H.gga
    0.03297677    1.29357150   -0.00000000   2      12  H.gga
    2.27425731    5.28975864    0.00000000   3      13  O.gga

outcell: Unit cell vectors (Ang):
       20.000000    0.000000    0.000000
        0.000000   20.000000    0.000000
        0.000000    0.000000   20.000000

outcell: Cell vector modules (Ang)   :   20.000000   20.000000   20.000000
outcell: Cell angles (23,13,12) (deg):     90.0000     90.0000     90.0000
outcell: Cell volume (Ang**3)        :   8000.0000
<dSpData1D:S at geom step 4
  <sparsity:sparsity for geom step 4
    nrows_g=121 nrows=121 sparsity=.9981 nnzs=14613, refcount: 7>
  <dData1D:(new from dSpData1D) n=14613, refcount: 1>
refcount: 1>
new_DM -- step:     5
Re-using DM from previous geometries...
Number of DMs in history: 1
 DM extrapolation coefficients: 
1   1.00000
New DM after history re-use:
<dSpData2D:SpM extrapolated using coords
  <sparsity:sparsity for geom step 4
    nrows_g=121 nrows=121 sparsity=.9981 nnzs=14613, refcount: 8>
  <dData2D:(temp array for extrapolation) n=14613 m=1, refcount: 1>
refcount: 1>
No. of atoms with KB's overlaping orbs in proc 0. Max # of overlaps:      13     118
New grid distribution:   1
           1       1:  108    1:  108    1:  108

InitMesh: MESH =   216 x   216 x   216 =    10077696
InitMesh: (bp) =   108 x   108 x   108 =     1259712
InitMesh: Mesh cutoff (required, used) =   300.000   322.366 Ry
ExtMesh (bp) on 0 =   188 x   188 x   188 =     6644672
PhiOnMesh: Number of (b)points on node 0 =              1259712
PhiOnMesh: nlist on node 0 =              2631442

        iscf     Eharris(eV)        E_KS(eV)     FreeEng(eV)     dDmax    Ef(eV) dHmax(eV)
   scf:    1    -1515.826421    -1515.620374    -1515.620374  0.031641 -2.890766  0.161405
   scf:    2    -1515.605850    -1515.616720    -1515.616720  0.007917 -2.890419  0.307349
   scf:    3    -1515.623095    -1515.621607    -1515.621607  0.005313 -2.895185  0.009952
   scf:    4    -1515.621621    -1515.621615    -1515.621615  0.000241 -2.895950  0.004489
   scf:    5    -1515.621621    -1515.621618    -1515.621618  0.000206 -2.895947  0.002521
   scf:    6    -1515.621619    -1515.621619    -1515.621619  0.000099 -2.895699  0.001422
   scf:    7    -1515.621619    -1515.621619    -1515.621619  0.000089 -2.895468  0.000336

SCF Convergence by DM+H criterion
max |DM_out - DM_in|         :     0.0000888762
max |H_out - H_in|      (eV) :     0.0003356338
SCF cycle converged after 7 iterations

Using DM_out to compute the final energy and forces
No. of atoms with KB's overlaping orbs in proc 0. Max # of overlaps:      13     118

siesta: E_KS(eV) =            -1515.6216

siesta: Atomic forces (eV/Ang):
----------------------------------------
   Tot   -0.003187    0.018456   -0.000000
----------------------------------------
   Max    0.724493
   Res    0.311831    sqrt( Sum f_i^2 / 3N )
----------------------------------------
   Max    0.724493    constrained

Stress-tensor-Voigt (kbar):       -0.80       -0.73        0.00       -0.31        0.00        0.00
(Free)E + p*V (eV/cell)    -1513.0810
Target enthalpy (eV/cell)    -1515.6216

                     ====================================
                        Begin FIRE opt. move =      5
                     ====================================

outcoor: Atomic coordinates (Ang):                          
    2.18956639    1.11690872    0.00000000   1       1  C.gga
    3.40196876    1.81003885    0.00000000   1       2  C.gga
    3.42724280    3.20486080   -0.00000000   1       3  C.gga
    2.20219941    3.92209829   -0.00000000   1       4  C.gga
    0.99847632    3.22245502    0.00000000   1       5  C.gga
    0.99123061    1.83229967    0.00000000   1       6  C.gga
    1.42582467    5.77775517   -0.00000000   2       7  H.gga
    2.17837716    0.01823022    0.00000000   2       8  H.gga
    4.35523982    1.24588808    0.00000000   2       9  H.gga
    4.38600156    3.74241667   -0.00000000   2      10  H.gga
    0.04907016    3.78516108   -0.00000000   2      11  H.gga
    0.02799802    1.29108101   -0.00000000   2      12  H.gga
    2.28580291    5.29980966    0.00000000   3      13  O.gga

outcell: Unit cell vectors (Ang):
       20.000000    0.000000    0.000000
        0.000000   20.000000    0.000000
        0.000000    0.000000   20.000000

outcell: Cell vector modules (Ang)   :   20.000000   20.000000   20.000000
outcell: Cell angles (23,13,12) (deg):     90.0000     90.0000     90.0000
outcell: Cell volume (Ang**3)        :   8000.0000
<dSpData1D:S at geom step 5
  <sparsity:sparsity for geom step 5
    nrows_g=121 nrows=121 sparsity=.9981 nnzs=14613, refcount: 7>
  <dData1D:(new from dSpData1D) n=14613, refcount: 1>
refcount: 1>
new_DM -- step:     6
Re-using DM from previous geometries...
Number of DMs in history: 1
 DM extrapolation coefficients: 
1   1.00000
New DM after history re-use:
<dSpData2D:SpM extrapolated using coords
  <sparsity:sparsity for geom step 5
    nrows_g=121 nrows=121 sparsity=.9981 nnzs=14613, refcount: 8>
  <dData2D:(temp array for extrapolation) n=14613 m=1, refcount: 1>
refcount: 1>
No. of atoms with KB's overlaping orbs in proc 0. Max # of overlaps:      13     118
New grid distribution:   1
           1       1:  108    1:  108    1:  108

InitMesh: MESH =   216 x   216 x   216 =    10077696
InitMesh: (bp) =   108 x   108 x   108 =     1259712
InitMesh: Mesh cutoff (required, used) =   300.000   322.366 Ry
ExtMesh (bp) on 0 =   188 x   188 x   188 =     6644672
PhiOnMesh: Number of (b)points on node 0 =              1259712
PhiOnMesh: nlist on node 0 =              2631178

        iscf     Eharris(eV)        E_KS(eV)     FreeEng(eV)     dDmax    Ef(eV) dHmax(eV)
   scf:    1    -1515.877793    -1515.644900    -1515.644900  0.033233 -2.826623  0.141282
   scf:    2    -1515.631518    -1515.641494    -1515.641494  0.008278 -2.832426  0.291938
   scf:    3    -1515.647320    -1515.645979    -1515.645979  0.005090 -2.832948  0.010785
   scf:    4    -1515.645994    -1515.645987    -1515.645987  0.000261 -2.833779  0.004964
   scf:    5    -1515.645994    -1515.645990    -1515.645990  0.000231 -2.833861  0.002545
   scf:    6    -1515.645992    -1515.645991    -1515.645991  0.000099 -2.833653  0.001379
   scf:    7    -1515.645992    -1515.645992    -1515.645992  0.000092 -2.833466  0.000374

SCF Convergence by DM+H criterion
max |DM_out - DM_in|         :     0.0000922233
max |H_out - H_in|      (eV) :     0.0003744333
SCF cycle converged after 7 iterations

Using DM_out to compute the final energy and forces
No. of atoms with KB's overlaping orbs in proc 0. Max # of overlaps:      13     118

siesta: E_KS(eV) =            -1515.6460

siesta: Atomic forces (eV/Ang):
----------------------------------------
   Tot   -0.034499    0.027700   -0.000000
----------------------------------------
   Max    0.798787
   Res    0.325518    sqrt( Sum f_i^2 / 3N )
----------------------------------------
   Max    0.798787    constrained

Stress-tensor-Voigt (kbar):       -0.61       -0.55        0.00       -0.30       -0.00       -0.00
(Free)E + p*V (eV/cell)    -1513.7336
Target enthalpy (eV/cell)    -1515.6460

                     ====================================
                        Begin FIRE opt. move =      6
                     ====================================

outcoor: Atomic coordinates (Ang):                          
    2.18890664    1.11404107    0.00000000   1       1  C.gga
    3.40255522    1.81044394    0.00000000   1       2  C.gga
    3.42712842    3.20711393   -0.00000000   1       3  C.gga
    2.19921688    3.92497095   -0.00000000   1       4  C.gga
    0.99442504    3.22271438    0.00000000   1       5  C.gga
    0.99059114    1.82986066    0.00000000   1       6  C.gga
    1.42288540    5.76989205   -0.00000000   2       7  H.gga
    2.17827581    0.01171153    0.00000000   2       8  H.gga
    4.35975515    1.24386172    0.00000000   2       9  H.gga
    4.39097720    3.74683326   -0.00000000   2      10  H.gga
    0.04404693    3.78857624   -0.00000000   2      11  H.gga
    0.02307123    1.28868046   -0.00000000   2      12  H.gga
    2.29731943    5.31032039    0.00000000   3      13  O.gga

outcell: Unit cell vectors (Ang):
       20.000000    0.000000    0.000000
        0.000000   20.000000    0.000000
        0.000000    0.000000   20.000000

outcell: Cell vector modules (Ang)   :   20.000000   20.000000   20.000000
outcell: Cell angles (23,13,12) (deg):     90.0000     90.0000     90.0000
outcell: Cell volume (Ang**3)        :   8000.0000
<dSpData1D:S at geom step 6
  <sparsity:sparsity for geom step 6
    nrows_g=121 nrows=121 sparsity=.9981 nnzs=14613, refcount: 7>
  <dData1D:(new from dSpData1D) n=14613, refcount: 1>
refcount: 1>
new_DM -- step:     7
Re-using DM from previous geometries...
Number of DMs in history: 1
 DM extrapolation coefficients: 
1   1.00000
New DM after history re-use:
<dSpData2D:SpM extrapolated using coords
  <sparsity:sparsity for geom step 6
    nrows_g=121 nrows=121 sparsity=.9981 nnzs=14613, refcount: 8>
  <dData2D:(temp array for extrapolation) n=14613 m=1, refcount: 1>
refcount: 1>
No. of atoms with KB's overlaping orbs in proc 0. Max # of overlaps:      13     118
New grid distribution:   1
           1       1:  108    1:  108    1:  108

InitMesh: MESH =   216 x   216 x   216 =    10077696
InitMesh: (bp) =   108 x   108 x   108 =     1259712
InitMesh: Mesh cutoff (required, used) =   300.000   322.366 Ry
ExtMesh (bp) on 0 =   188 x   188 x   188 =     6644672
PhiOnMesh: Number of (b)points on node 0 =              1259712
PhiOnMesh: nlist on node 0 =              2631169

        iscf     Eharris(eV)        E_KS(eV)     FreeEng(eV)     dDmax    Ef(eV) dHmax(eV)
   scf:    1    -1515.897958    -1515.664569    -1515.664569  0.029842 -4.937359  0.098937
   scf:    2    -1515.656395    -1515.662480    -1515.662480  0.007244 -4.961567  0.198365
   scf:    3    -1515.666026    -1515.665214    -1515.665214  0.004523 -4.948540  0.010356
   scf:    4    -1515.665227    -1515.665221    -1515.665221  0.000227 -4.949412  0.005451
   scf:    5    -1515.665228    -1515.665225    -1515.665225  0.000235 -4.949763  0.002060
   scf:    6    -1515.665226    -1515.665225    -1515.665225  0.000086 -4.949665  0.001093
   scf:    7    -1515.665226    -1515.665225    -1515.665225  0.000087 -4.949590  0.000380

SCF Convergence by DM+H criterion
max |DM_out - DM_in|         :     0.0000872836
max |H_out - H_in|      (eV) :     0.0003799667
SCF cycle converged after 7 iterations

Using DM_out to compute the final energy and forces
No. of atoms with KB's overlaping orbs in proc 0. Max # of overlaps:      13     118

siesta: E_KS(eV) =            -1515.6652

siesta: Atomic forces (eV/Ang):
----------------------------------------
   Tot   -0.040576    0.020592   -0.000000
----------------------------------------
   Max    0.860850
   Res    0.333371    sqrt( Sum f_i^2 / 3N )
----------------------------------------
   Max    0.860850    constrained

Stress-tensor-Voigt (kbar):       -0.40       -0.32        0.00       -0.24       -0.00        0.00
(Free)E + p*V (eV/cell)    -1514.4665
Target enthalpy (eV/cell)    -1515.6652

                     ====================================
                        Begin FIRE opt. move =      7
                     ====================================

outcoor: Atomic coordinates (Ang):                          
    2.18819415    1.10992530    0.00000000   1       1  C.gga
    3.40482024    1.81008326   -0.00000000   1       2  C.gga
    3.42672606    3.21045971   -0.00000000   1       3  C.gga
    2.19887536    3.92953744   -0.00000000   1       4  C.gga
    0.98857880    3.22467507    0.00000000   1       5  C.gga
    0.98840867    1.82593585    0.00000000   1       6  C.gga
    1.42091183    5.76088275   -0.00000000   2       7  H.gga
    2.17817969    0.00528083    0.00000000   2       8  H.gga
    4.36365721    1.24230618    0.00000000   2       9  H.gga
    4.39557000    3.75134211   -0.00000000   2      10  H.gga
    0.03909397    3.79178083   -0.00000000   2      11  H.gga
    0.01856686    1.28654186   -0.00000000   2      12  H.gga
    2.30759797    5.32035133    0.00000000   3      13  O.gga

outcell: Unit cell vectors (Ang):
       20.000000    0.000000    0.000000
        0.000000   20.000000    0.000000
        0.000000    0.000000   20.000000

outcell: Cell vector modules (Ang)   :   20.000000   20.000000   20.000000
outcell: Cell angles (23,13,12) (deg):     90.0000     90.0000     90.0000
outcell: Cell volume (Ang**3)        :   8000.0000
<dSpData1D:S at geom step 7
  <sparsity:sparsity for geom step 7
    nrows_g=121 nrows=121 sparsity=.9981 nnzs=14613, refcount: 7>
  <dData1D:(new from dSpData1D) n=14613, refcount: 1>
refcount: 1>
new_DM -- step:     8
Re-using DM from previous geometries...
Number of DMs in history: 1
 DM extrapolation coefficients: 
1   1.00000
New DM after history re-use:
<dSpData2D:SpM extrapolated using coords
  <sparsity:sparsity for geom step 7
    nrows_g=121 nrows=121 sparsity=.9981 nnzs=14613, refcount: 8>
  <dData2D:(temp array for extrapolation) n=14613 m=1, refcount: 1>
refcount: 1>
No. of atoms with KB's overlaping orbs in proc 0. Max # of overlaps:      13     118
New grid distribution:   1
           1       1:  108    1:  108    1:  108

InitMesh: MESH =   216 x   216 x   216 =    10077696
InitMesh: (bp) =   108 x   108 x   108 =     1259712
InitMesh: Mesh cutoff (required, used) =   300.000   322.366 Ry
ExtMesh (bp) on 0 =   188 x   188 x   188 =     6644672
PhiOnMesh: Number of (b)points on node 0 =              1259712
PhiOnMesh: nlist on node 0 =              2631036

        iscf     Eharris(eV)        E_KS(eV)     FreeEng(eV)     dDmax    Ef(eV) dHmax(eV)
   scf:    1    -1515.891492    -1515.682119    -1515.682119  0.023319 -4.920510  0.125226
   scf:    2    -1515.675358    -1515.680418    -1515.680418  0.005939 -4.979045  0.218433
   scf:    3    -1515.683380    -1515.682682    -1515.682682  0.003957 -4.940844  0.011915
   scf:    4    -1515.682693    -1515.682688    -1515.682688  0.000152 -4.941668  0.007446
   scf:    5    -1515.682696    -1515.682693    -1515.682693  0.000302 -4.942922  0.001154
   scf:    6    -1515.682693    -1515.682693    -1515.682693  0.000045 -4.942939  0.000818

SCF Convergence by DM+H criterion
max |DM_out - DM_in|         :     0.0000445147
max |H_out - H_in|      (eV) :     0.0008182810
SCF cycle converged after 6 iterations

Using DM_out to compute the final energy and forces
No. of atoms with KB's overlaping orbs in proc 0. Max # of overlaps:      13     118

siesta: E_KS(eV) =            -1515.6827

siesta: Atomic forces (eV/Ang):
----------------------------------------
   Tot   -0.028592    0.012085    0.000000
----------------------------------------
   Max    0.821718
   Res    0.294051    sqrt( Sum f_i^2 / 3N )
----------------------------------------
   Max    0.821718    constrained

Stress-tensor-Voigt (kbar):       -0.20       -0.07        0.00       -0.15        0.00        0.00
(Free)E + p*V (eV/cell)    -1515.2359
Target enthalpy (eV/cell)    -1515.6827

                     ====================================
                        Begin FIRE opt. move =      8
                     ====================================

outcoor: Atomic coordinates (Ang):                          
    2.18766067    1.10424051    0.00000000   1       1  C.gga
    3.40885630    1.80890180   -0.00000000   1       2  C.gga
    3.42629937    3.21504778   -0.00000000   1       3  C.gga
    2.20145378    3.93638103   -0.00000000   1       4  C.gga
    0.98096225    3.22857657   -0.00000000   1       5  C.gga
    0.98424445    1.82060701    0.00000000   1       6  C.gga
    1.42023189    5.74993156   -0.00000000   2       7  H.gga
    2.17809129   -0.00143249    0.00000000   2       8  H.gga
    4.36706612    1.24127235    0.00000000   2       9  H.gga
    4.39971237    3.75617051   -0.00000000   2      10  H.gga
    0.03369393    3.79500959   -0.00000000   2      11  H.gga
    0.01423205    1.28451402   -0.00000000   2      12  H.gga
    2.31659119    5.33001369   -0.00000000   3      13  O.gga

outcell: Unit cell vectors (Ang):
       20.000000    0.000000    0.000000
        0.000000   20.000000    0.000000
        0.000000    0.000000   20.000000

outcell: Cell vector modules (Ang)   :   20.000000   20.000000   20.000000
outcell: Cell angles (23,13,12) (deg):     90.0000     90.0000     90.0000
outcell: Cell volume (Ang**3)        :   8000.0000
<dSpData1D:S at geom step 8
  <sparsity:sparsity for geom step 8
    nrows_g=121 nrows=121 sparsity=.9980 nnzs=14611, refcount: 7>
  <dData1D:(new from dSpData1D) n=14611, refcount: 1>
refcount: 1>
new_DM -- step:     9
Re-using DM from previous geometries...
Number of DMs in history: 1
 DM extrapolation coefficients: 
1   1.00000
New DM after history re-use:
<dSpData2D:SpM extrapolated using coords
  <sparsity:sparsity for geom step 8
    nrows_g=121 nrows=121 sparsity=.9980 nnzs=14611, refcount: 8>
  <dData2D:(temp array for extrapolation) n=14611 m=1, refcount: 1>
refcount: 1>
No. of atoms with KB's overlaping orbs in proc 0. Max # of overlaps:      13     117
New grid distribution:   1
           1       1:  108    1:  108    1:  108

InitMesh: MESH =   216 x   216 x   216 =    10077696
InitMesh: (bp) =   108 x   108 x   108 =     1259712
InitMesh: Mesh cutoff (required, used) =   300.000   322.366 Ry
ExtMesh (bp) on 0 =   188 x   188 x   188 =     6644672
PhiOnMesh: Number of (b)points on node 0 =              1259712
PhiOnMesh: nlist on node 0 =              2631095

        iscf     Eharris(eV)        E_KS(eV)     FreeEng(eV)     dDmax    Ef(eV) dHmax(eV)
   scf:    1    -1515.874630    -1515.695222    -1515.695222  0.016992 -4.938636  0.223311
   scf:    2    -1515.673722    -1515.689703    -1515.689703  0.014574 -2.908158  0.479088
   scf:    3    -1515.699041    -1515.696840    -1515.696840  0.010015 -4.976735  0.013920
   scf:    4    -1515.696860    -1515.696850    -1515.696850  0.000179 -4.977720  0.008392
   scf:    5    -1515.696862    -1515.696857    -1515.696857  0.000308 -4.979776  0.002424
   scf:    6    -1515.696858    -1515.696858    -1515.696858  0.000065 -4.980183  0.001134
   scf:    7    -1515.696858    -1515.696858    -1515.696858  0.000045 -4.980360  0.000370

SCF Convergence by DM+H criterion
max |DM_out - DM_in|         :     0.0000450454
max |H_out - H_in|      (eV) :     0.0003701441
SCF cycle converged after 7 iterations

Using DM_out to compute the final energy and forces
No. of atoms with KB's overlaping orbs in proc 0. Max # of overlaps:      13     117

siesta: E_KS(eV) =            -1515.6969

siesta: Atomic forces (eV/Ang):
----------------------------------------
   Tot   -0.007128   -0.011194    0.000000
----------------------------------------
   Max    0.545052
   Res    0.219216    sqrt( Sum f_i^2 / 3N )
----------------------------------------
   Max    0.545052    constrained

Stress-tensor-Voigt (kbar):       -0.00        0.21        0.00       -0.04       -0.00        0.00
(Free)E + p*V (eV/cell)    -1516.0545
Target enthalpy (eV/cell)    -1515.6969

                     ====================================
                        Begin FIRE opt. move =      9
                     ====================================

outcoor: Atomic coordinates (Ang):                          
    2.18781208    1.09734987    0.00000000   1       1  C.gga
    3.41402314    1.80707368   -0.00000000   1       2  C.gga
    3.42653545    3.22036674   -0.00000000   1       3  C.gga
    2.20682089    3.94550398   -0.00000000   1       4  C.gga
    0.97304639    3.23417730   -0.00000000   1       5  C.gga
    0.97806402    1.81506458   -0.00000000   1       6  C.gga
    1.42146236    5.73697257   -0.00000000   2       7  H.gga
    2.17803603   -0.00831897    0.00000000   2       8  H.gga
    4.36984105    1.24098174    0.00000000   2       9  H.gga
    4.40269649    3.76114000   -0.00000000   2      10  H.gga
    0.02744631    3.79836051   -0.00000000   2      11  H.gga
    0.01003211    1.28250266    0.00000000   2      12  H.gga
    2.32313797    5.33816370   -0.00000000   3      13  O.gga

outcell: Unit cell vectors (Ang):
       20.000000    0.000000    0.000000
        0.000000   20.000000    0.000000
        0.000000    0.000000   20.000000

outcell: Cell vector modules (Ang)   :   20.000000   20.000000   20.000000
outcell: Cell angles (23,13,12) (deg):     90.0000     90.0000     90.0000
outcell: Cell volume (Ang**3)        :   8000.0000
<dSpData1D:S at geom step 9
  <sparsity:sparsity for geom step 9
    nrows_g=121 nrows=121 sparsity=.9980 nnzs=14611, refcount: 7>
  <dData1D:(new from dSpData1D) n=14611, refcount: 1>
refcount: 1>
new_DM -- step:    10
Re-using DM from previous geometries...
Number of DMs in history: 1
 DM extrapolation coefficients: 
1   1.00000
New DM after history re-use:
<dSpData2D:SpM extrapolated using coords
  <sparsity:sparsity for geom step 9
    nrows_g=121 nrows=121 sparsity=.9980 nnzs=14611, refcount: 8>
  <dData2D:(temp array for extrapolation) n=14611 m=1, refcount: 1>
refcount: 1>
No. of atoms with KB's overlaping orbs in proc 0. Max # of overlaps:      13     117
New grid distribution:   1
           1       1:  108    1:  108    1:  108

InitMesh: MESH =   216 x   216 x   216 =    10077696
InitMesh: (bp) =   108 x   108 x   108 =     1259712
InitMesh: Mesh cutoff (required, used) =   300.000   322.366 Ry
ExtMesh (bp) on 0 =   188 x   188 x   188 =     6644672
PhiOnMesh: Number of (b)points on node 0 =              1259712
PhiOnMesh: nlist on node 0 =              2631408

        iscf     Eharris(eV)        E_KS(eV)     FreeEng(eV)     dDmax    Ef(eV) dHmax(eV)
   scf:    1    -1515.807766    -1515.694164    -1515.694164  0.017913 -5.000879  0.360177
   scf:    2    -1515.625107    -1515.675953    -1515.675953  0.028081 -3.065839  0.836988
   scf:    3    -1515.705419    -1515.698670    -1515.698670  0.019277 -2.920569  0.013111
   scf:    4    -1515.698710    -1515.698691    -1515.698691  0.000219 -2.922228  0.008312
   scf:    5    -1515.698710    -1515.698702    -1515.698702  0.000275 -2.924865  0.003823
   scf:    6    -1515.698704    -1515.698703    -1515.698703  0.000113 -2.926073  0.001778
   scf:    7    -1515.698703    -1515.698703    -1515.698703  0.000062 -2.926639  0.000511

SCF Convergence by DM+H criterion
max |DM_out - DM_in|         :     0.0000618347
max |H_out - H_in|      (eV) :     0.0005114031
SCF cycle converged after 7 iterations

Using DM_out to compute the final energy and forces
No. of atoms with KB's overlaping orbs in proc 0. Max # of overlaps:      13     117

siesta: E_KS(eV) =            -1515.6987

siesta: Atomic forces (eV/Ang):
----------------------------------------
   Tot    0.011023   -0.029932    0.000000
----------------------------------------
   Max    0.586230
   Res    0.208531    sqrt( Sum f_i^2 / 3N )
----------------------------------------
   Max    0.586230    constrained

Stress-tensor-Voigt (kbar):        0.18        0.49        0.00        0.08       -0.00        0.00
(Free)E + p*V (eV/cell)    -1516.8191
Target enthalpy (eV/cell)    -1515.6987

                     ====================================
                        Begin FIRE opt. move =     10
                     ====================================

outcoor: Atomic coordinates (Ang):                          
    2.18813227    1.09751509    0.00000000   1       1  C.gga
    3.41365885    1.80716497   -0.00000000   1       2  C.gga
    3.42706664    3.22009248   -0.00000000   1       3  C.gga
    2.20698043    3.94569871   -0.00000000   1       4  C.gga
    0.97400825    3.23421378   -0.00000000   1       5  C.gga
    0.97796260    1.81585622   -0.00000000   1       6  C.gga
    1.42194983    5.73658393   -0.00000000   2       7  H.gga
    2.17806284   -0.00838266    0.00000000   2       8  H.gga
    4.36976361    1.24119260    0.00000000   2       9  H.gga
    4.40216086    3.76112436   -0.00000000   2      10  H.gga
    0.02699453    3.79849981   -0.00000000   2      11  H.gga
    0.00990162    1.28238640    0.00000000   2      12  H.gga
    2.32233002    5.33734355   -0.00000000   3      13  O.gga

outcell: Unit cell vectors (Ang):
       20.000000    0.000000    0.000000
        0.000000   20.000000    0.000000
        0.000000    0.000000   20.000000

outcell: Cell vector modules (Ang)   :   20.000000   20.000000   20.000000
outcell: Cell angles (23,13,12) (deg):     90.0000     90.0000     90.0000
outcell: Cell volume (Ang**3)        :   8000.0000
<dSpData1D:S at geom step 10
  <sparsity:sparsity for geom step 10
    nrows_g=121 nrows=121 sparsity=.9980 nnzs=14611, refcount: 7>
  <dData1D:(new from dSpData1D) n=14611, refcount: 1>
refcount: 1>
new_DM -- step:    11
Re-using DM from previous geometries...
Number of DMs in history: 1
 DM extrapolation coefficients: 
1   1.00000
New DM after history re-use:
<dSpData2D:SpM extrapolated using coords
  <sparsity:sparsity for geom step 10
    nrows_g=121 nrows=121 sparsity=.9980 nnzs=14611, refcount: 8>
  <dData2D:(temp array for extrapolation) n=14611 m=1, refcount: 1>
refcount: 1>
No. of atoms with KB's overlaping orbs in proc 0. Max # of overlaps:      13     117
New grid distribution:   1
           1       1:  108    1:  108    1:  108

InitMesh: MESH =   216 x   216 x   216 =    10077696
InitMesh: (bp) =   108 x   108 x   108 =     1259712
InitMesh: Mesh cutoff (required, used) =   300.000   322.366 Ry
ExtMesh (bp) on 0 =   188 x   188 x   188 =     6644672
PhiOnMesh: Number of (b)points on node 0 =              1259712
PhiOnMesh: nlist on node 0 =              2631387

        iscf     Eharris(eV)        E_KS(eV)     FreeEng(eV)     dDmax    Ef(eV) dHmax(eV)
   scf:    1    -1515.680814    -1515.701288    -1515.701288  0.002197 -2.927906  0.038006
   scf:    2    -1515.700127    -1515.700966    -1515.700966  0.003138 -2.955439  0.090186
   scf:    3    -1515.701443    -1515.701342    -1515.701342  0.002201 -2.936107  0.002580
   scf:    4    -1515.701343    -1515.701343    -1515.701343  0.000056 -2.936492  0.001498
   scf:    5    -1515.701343    -1515.701343    -1515.701343  0.000091 -2.936990  0.000173

SCF Convergence by DM+H criterion
max |DM_out - DM_in|         :     0.0000911865
max |H_out - H_in|      (eV) :     0.0001725989
SCF cycle converged after 5 iterations

Using DM_out to compute the final energy and forces
No. of atoms with KB's overlaping orbs in proc 0. Max # of overlaps:      13     117

siesta: E_KS(eV) =            -1515.7013

siesta: Atomic forces (eV/Ang):
----------------------------------------
   Tot    0.008907   -0.027818   -0.000000
----------------------------------------
   Max    0.513911
   Res    0.187449    sqrt( Sum f_i^2 / 3N )
----------------------------------------
   Max    0.513911    constrained

Stress-tensor-Voigt (kbar):        0.17        0.47        0.00        0.07        0.00       -0.00
(Free)E + p*V (eV/cell)    -1516.7842
Target enthalpy (eV/cell)    -1515.7013

                     ====================================
                        Begin FIRE opt. move =     11
                     ====================================

outcoor: Atomic coordinates (Ang):                          
    2.18851087    1.09772153    0.00000000   1       1  C.gga
    3.41322031    1.80727480    0.00000000   1       2  C.gga
    3.42770866    3.21975937   -0.00000000   1       3  C.gga
    2.20719888    3.94592669   -0.00000000   1       4  C.gga
    0.97517854    3.23427900   -0.00000000   1       5  C.gga
    0.97784498    1.81682293   -0.00000000   1       6  C.gga
    1.42254114    5.73610132   -0.00000000   2       7  H.gga
    2.17809701   -0.00845802    0.00000000   2       8  H.gga
    4.36966284    1.24145900    0.00000000   2       9  H.gga
    4.40149992    3.76110915   -0.00000000   2      10  H.gga
    0.02644735    3.79866520   -0.00000000   2      11  H.gga
    0.00974404    1.28224719    0.00000000   2      12  H.gga
    2.32133938    5.33632039    0.00000000   3      13  O.gga

outcell: Unit cell vectors (Ang):
       20.000000    0.000000    0.000000
        0.000000   20.000000    0.000000
        0.000000    0.000000   20.000000

outcell: Cell vector modules (Ang)   :   20.000000   20.000000   20.000000
outcell: Cell angles (23,13,12) (deg):     90.0000     90.0000     90.0000
outcell: Cell volume (Ang**3)        :   8000.0000
<dSpData1D:S at geom step 11
  <sparsity:sparsity for geom step 11
    nrows_g=121 nrows=121 sparsity=.9980 nnzs=14611, refcount: 7>
  <dData1D:(new from dSpData1D) n=14611, refcount: 1>
refcount: 1>
new_DM -- step:    12
Re-using DM from previous geometries...
Number of DMs in history: 1
 DM extrapolation coefficients: 
1   1.00000
New DM after history re-use:
<dSpData2D:SpM extrapolated using coords
  <sparsity:sparsity for geom step 11
    nrows_g=121 nrows=121 sparsity=.9980 nnzs=14611, refcount: 8>
  <dData2D:(temp array for extrapolation) n=14611 m=1, refcount: 1>
refcount: 1>
No. of atoms with KB's overlaping orbs in proc 0. Max # of overlaps:      13     117
New grid distribution:   1
           1       1:  108    1:  108    1:  108

InitMesh: MESH =   216 x   216 x   216 =    10077696
InitMesh: (bp) =   108 x   108 x   108 =     1259712
InitMesh: Mesh cutoff (required, used) =   300.000   322.366 Ry
ExtMesh (bp) on 0 =   188 x   188 x   188 =     6644672
PhiOnMesh: Number of (b)points on node 0 =              1259712
PhiOnMesh: nlist on node 0 =              2631335

        iscf     Eharris(eV)        E_KS(eV)     FreeEng(eV)     dDmax    Ef(eV) dHmax(eV)
   scf:    1    -1515.678756    -1515.704106    -1515.704106  0.002706 -2.938611  0.046875
   scf:    2    -1515.702335    -1515.703615    -1515.703615  0.003855 -2.972543  0.111174
   scf:    3    -1515.704342    -1515.704189    -1515.704189  0.002705 -2.948709  0.003159
   scf:    4    -1515.704189    -1515.704189    -1515.704189  0.000070 -2.949173  0.001837
   scf:    5    -1515.704189    -1515.704189    -1515.704189  0.000112 -2.949767  0.000212
   scf:    6    -1515.704189    -1515.704189    -1515.704189  0.000017 -2.949801  0.000111

SCF Convergence by DM+H criterion
max |DM_out - DM_in|         :     0.0000170085
max |H_out - H_in|      (eV) :     0.0001106838
SCF cycle converged after 6 iterations

Using DM_out to compute the final energy and forces
No. of atoms with KB's overlaping orbs in proc 0. Max # of overlaps:      13     117

siesta: E_KS(eV) =            -1515.7042

siesta: Atomic forces (eV/Ang):
----------------------------------------
   Tot    0.006008   -0.025916    0.000000
----------------------------------------
   Max    0.457081
   Res    0.163296    sqrt( Sum f_i^2 / 3N )
----------------------------------------
   Max    0.457081    constrained

Stress-tensor-Voigt (kbar):        0.17        0.45        0.00        0.05       -0.00        0.00
(Free)E + p*V (eV/cell)    -1516.7412
Target enthalpy (eV/cell)    -1515.7042

                     ====================================
                        Begin FIRE opt. move =     12
                     ====================================

outcoor: Atomic coordinates (Ang):                          
    2.18898074    1.09800992    0.00000000   1       1  C.gga
    3.41265338    1.80741683    0.00000000   1       2  C.gga
    3.42854572    3.21931987   -0.00000000   1       3  C.gga
    2.20755549    3.94620269   -0.00000000   1       4  C.gga
    0.97672678    3.23442402   -0.00000000   1       5  C.gga
    0.97770555    1.81811115   -0.00000000   1       6  C.gga
    1.42331727    5.73543511   -0.00000000   2       7  H.gga
    2.17814651   -0.00855164    0.00000000   2       8  H.gga
    4.36951112    1.24183922    0.00000000   2       9  H.gga
    4.40059979    3.76110007   -0.00000000   2      10  H.gga
    0.02573075    3.79887259   -0.00000000   2      11  H.gga
    0.00953906    1.28206955    0.00000000   2      12  H.gga
    2.32000874    5.33489579    0.00000000   3      13  O.gga

outcell: Unit cell vectors (Ang):
       20.000000    0.000000    0.000000
        0.000000   20.000000    0.000000
        0.000000    0.000000   20.000000

outcell: Cell vector modules (Ang)   :   20.000000   20.000000   20.000000
outcell: Cell angles (23,13,12) (deg):     90.0000     90.0000     90.0000
outcell: Cell volume (Ang**3)        :   8000.0000
<dSpData1D:S at geom step 12
  <sparsity:sparsity for geom step 12
    nrows_g=121 nrows=121 sparsity=.9980 nnzs=14611, refcount: 7>
  <dData1D:(new from dSpData1D) n=14611, refcount: 1>
refcount: 1>
new_DM -- step:    13
Re-using DM from previous geometries...
Number of DMs in history: 1
 DM extrapolation coefficients: 
1   1.00000
New DM after history re-use:
<dSpData2D:SpM extrapolated using coords
  <sparsity:sparsity for geom step 12
    nrows_g=121 nrows=121 sparsity=.9980 nnzs=14611, refcount: 8>
  <dData2D:(temp array for extrapolation) n=14611 m=1, refcount: 1>
refcount: 1>
No. of atoms with KB's overlaping orbs in proc 0. Max # of overlaps:      13     117
New grid distribution:   1
           1       1:  108    1:  108    1:  108

InitMesh: MESH =   216 x   216 x   216 =    10077696
InitMesh: (bp) =   108 x   108 x   108 =     1259712
InitMesh: Mesh cutoff (required, used) =   300.000   322.366 Ry
ExtMesh (bp) on 0 =   188 x   188 x   188 =     6644672
PhiOnMesh: Number of (b)points on node 0 =              1259712
PhiOnMesh: nlist on node 0 =              2631362

        iscf     Eharris(eV)        E_KS(eV)     FreeEng(eV)     dDmax    Ef(eV) dHmax(eV)
   scf:    1    -1515.672642    -1515.707230    -1515.707230  0.003715 -2.952219  0.062268
   scf:    2    -1515.703957    -1515.706321    -1515.706321  0.005157 -2.997439  0.148247
   scf:    3    -1515.707665    -1515.707381    -1515.707381  0.003619 -2.965641  0.004178
   scf:    4    -1515.707383    -1515.707382    -1515.707382  0.000094 -2.966249  0.002442
   scf:    5    -1515.707383    -1515.707383    -1515.707383  0.000152 -2.967037  0.000264
   scf:    6    -1515.707383    -1515.707383    -1515.707383  0.000022 -2.967082  0.000148

SCF Convergence by DM+H criterion
max |DM_out - DM_in|         :     0.0000220741
max |H_out - H_in|      (eV) :     0.0001478930
SCF cycle converged after 6 iterations

Using DM_out to compute the final energy and forces
No. of atoms with KB's overlaping orbs in proc 0. Max # of overlaps:      13     117

siesta: E_KS(eV) =            -1515.7074

siesta: Atomic forces (eV/Ang):
----------------------------------------
   Tot    0.000930   -0.025344    0.000000
----------------------------------------
   Max    0.424086
   Res    0.134883    sqrt( Sum f_i^2 / 3N )
----------------------------------------
   Max    0.424086    constrained

Stress-tensor-Voigt (kbar):        0.16        0.42        0.00        0.03       -0.00       -0.00
(Free)E + p*V (eV/cell)    -1516.6803
Target enthalpy (eV/cell)    -1515.7074

                     ====================================
                        Begin FIRE opt. move =     13
                     ====================================

outcoor: Atomic coordinates (Ang):                          
    2.18947471    1.09838012    0.00000000   1       1  C.gga
    3.41200945    1.80757833    0.00000000   1       2  C.gga
    3.42951044    3.21880167   -0.00000000   1       3  C.gga
    2.20810827    3.94647565   -0.00000000   1       4  C.gga
    0.97855387    3.23470981   -0.00000000   1       5  C.gga
    0.97757183    1.81965123   -0.00000000   1       6  C.gga
    1.42421883    5.73459279   -0.00000000   2       7  H.gga
    2.17821343   -0.00864930    0.00000000   2       8  H.gga
    4.36929602    1.24234322    0.00000000   2       9  H.gga
    4.39948697    3.76111228   -0.00000000   2      10  H.gga
    0.02489933    3.79909546   -0.00000000   2      11  H.gga
    0.00930463    1.28187368    0.00000000   2      12  H.gga
    2.31840043    5.33307340    0.00000000   3      13  O.gga

outcell: Unit cell vectors (Ang):
       20.000000    0.000000    0.000000
        0.000000   20.000000    0.000000
        0.000000    0.000000   20.000000

outcell: Cell vector modules (Ang)   :   20.000000   20.000000   20.000000
outcell: Cell angles (23,13,12) (deg):     90.0000     90.0000     90.0000
outcell: Cell volume (Ang**3)        :   8000.0000
<dSpData1D:S at geom step 13
  <sparsity:sparsity for geom step 13
    nrows_g=121 nrows=121 sparsity=.9980 nnzs=14611, refcount: 7>
  <dData1D:(new from dSpData1D) n=14611, refcount: 1>
refcount: 1>
new_DM -- step:    14
Re-using DM from previous geometries...
Number of DMs in history: 1
 DM extrapolation coefficients: 
1   1.00000
New DM after history re-use:
<dSpData2D:SpM extrapolated using coords
  <sparsity:sparsity for geom step 13
    nrows_g=121 nrows=121 sparsity=.9980 nnzs=14611, refcount: 8>
  <dData2D:(temp array for extrapolation) n=14611 m=1, refcount: 1>
refcount: 1>
No. of atoms with KB's overlaping orbs in proc 0. Max # of overlaps:      13     117
New grid distribution:   1
           1       1:  108    1:  108    1:  108

InitMesh: MESH =   216 x   216 x   216 =    10077696
InitMesh: (bp) =   108 x   108 x   108 =     1259712
InitMesh: Mesh cutoff (required, used) =   300.000   322.366 Ry
ExtMesh (bp) on 0 =   188 x   188 x   188 =     6644672
PhiOnMesh: Number of (b)points on node 0 =              1259712
PhiOnMesh: nlist on node 0 =              2631371

        iscf     Eharris(eV)        E_KS(eV)     FreeEng(eV)     dDmax    Ef(eV) dHmax(eV)
   scf:    1    -1515.667463    -1515.710142    -1515.710142  0.004600 -2.970447  0.074110
   scf:    2    -1515.705164    -1515.708758    -1515.708758  0.006208 -3.024549  0.177648
   scf:    3    -1515.710801    -1515.710370    -1515.710370  0.004360 -2.986432  0.004897
   scf:    4    -1515.710372    -1515.710371    -1515.710371  0.000114 -2.987136  0.002882
   scf:    5    -1515.710372    -1515.710372    -1515.710372  0.000184 -2.988063  0.000298
   scf:    6    -1515.710372    -1515.710372    -1515.710372  0.000025 -2.988116  0.000177

SCF Convergence by DM+H criterion
max |DM_out - DM_in|         :     0.0000254896
max |H_out - H_in|      (eV) :     0.0001768437
SCF cycle converged after 6 iterations

Using DM_out to compute the final energy and forces
No. of atoms with KB's overlaping orbs in proc 0. Max # of overlaps:      13     117

siesta: E_KS(eV) =            -1515.7104

siesta: Atomic forces (eV/Ang):
----------------------------------------
   Tot   -0.003512   -0.018885   -0.000000
----------------------------------------
   Max    0.377460
   Res    0.108411    sqrt( Sum f_i^2 / 3N )
----------------------------------------
   Max    0.377460    constrained

Stress-tensor-Voigt (kbar):        0.14        0.39        0.00        0.01        0.00        0.00
(Free)E + p*V (eV/cell)    -1516.6030
Target enthalpy (eV/cell)    -1515.7104

                     ====================================
                        Begin FIRE opt. move =     14
                     ====================================

outcoor: Atomic coordinates (Ang):                          
    2.18989853    1.09882963   -0.00000000   1       1  C.gga
    3.41135974    1.80774330    0.00000000   1       2  C.gga
    3.43050836    3.21824259   -0.00000000   1       3  C.gga
    2.20893284    3.94666990   -0.00000000   1       4  C.gga
    0.98051924    3.23521825   -0.00000000   1       5  C.gga
    0.97747959    1.82134556   -0.00000000   1       6  C.gga
    1.42515652    5.73358423   -0.00000000   2       7  H.gga
    2.17830050   -0.00872894   -0.00000000   2       8  H.gga
[...]
    2.28747295    5.31814157    0.00000000   3      13  O.gga

outcell: Unit cell vectors (Ang):
       20.000000    0.000000    0.000000
        0.000000   20.000000    0.000000
        0.000000    0.000000   20.000000

outcell: Cell vector modules (Ang)   :   20.000000   20.000000   20.000000
outcell: Cell angles (23,13,12) (deg):     90.0000     90.0000     90.0000
outcell: Cell volume (Ang**3)        :   8000.0000
<dSpData1D:S at geom step 111
  <sparsity:sparsity for geom step 111
    nrows_g=121 nrows=121 sparsity=.9980 nnzs=14611, refcount: 7>
  <dData1D:(new from dSpData1D) n=14611, refcount: 1>
refcount: 1>
new_DM -- step:   112
Re-using DM from previous geometries...
Number of DMs in history: 1
 DM extrapolation coefficients: 
1   1.00000
New DM after history re-use:
<dSpData2D:SpM extrapolated using coords
  <sparsity:sparsity for geom step 111
    nrows_g=121 nrows=121 sparsity=.9980 nnzs=14611, refcount: 8>
  <dData2D:(temp array for extrapolation) n=14611 m=1, refcount: 1>
refcount: 1>
No. of atoms with KB's overlaping orbs in proc 0. Max # of overlaps:      13     117
New grid distribution:   1
           1       1:  108    1:  108    1:  108

InitMesh: MESH =   216 x   216 x   216 =    10077696
InitMesh: (bp) =   108 x   108 x   108 =     1259712
InitMesh: Mesh cutoff (required, used) =   300.000   322.366 Ry
ExtMesh (bp) on 0 =   188 x   188 x   188 =     6644672
PhiOnMesh: Number of (b)points on node 0 =              1259712
PhiOnMesh: nlist on node 0 =              2631327

        iscf     Eharris(eV)        E_KS(eV)     FreeEng(eV)     dDmax    Ef(eV) dHmax(eV)
   scf:    1    -1515.725943    -1515.727386    -1515.727386  0.001229 -3.093120  0.007292
   scf:    2    -1515.727360    -1515.727380    -1515.727380  0.000332 -3.091485  0.014316
   scf:    3    -1515.727392    -1515.727389    -1515.727389  0.000212 -3.092532  0.001187
   scf:    4    -1515.727389    -1515.727389    -1515.727389  0.000013 -3.092533  0.000714

SCF Convergence by DM+H criterion
max |DM_out - DM_in|         :     0.0000127738
max |H_out - H_in|      (eV) :     0.0007140662
SCF cycle converged after 4 iterations

Using DM_out to compute the final energy and forces
No. of atoms with KB's overlaping orbs in proc 0. Max # of overlaps:      13     117

siesta: E_KS(eV) =            -1515.7274

siesta: Atomic forces (eV/Ang):
----------------------------------------
   Tot   -0.041360    0.018517   -0.000000
----------------------------------------
   Max    0.052741
   Res    0.016099    sqrt( Sum f_i^2 / 3N )
----------------------------------------
   Max    0.052741    constrained

Stress-tensor-Voigt (kbar):       -0.00        0.02        0.00        0.00        0.00       -0.00
(Free)E + p*V (eV/cell)    -1515.7546
Target enthalpy (eV/cell)    -1515.7274

                     ====================================
                        Begin FIRE opt. move =    112
                     ====================================

outcoor: Atomic coordinates (Ang):                          
    2.18526480    1.11148549   -0.00000000   1       1  C.gga
    3.41042860    1.81378115   -0.00000000   1       2  C.gga
    3.43647888    3.22176503    0.00000000   1       3  C.gga
    2.21666695    3.94008522   -0.00000000   1       4  C.gga
    0.98488095    3.24549541    0.00000000   1       5  C.gga
    0.97435929    1.83581029    0.00000000   1       6  C.gga
    1.37556567    5.66941155   -0.00000003   2       7  H.gga
    2.17381899    0.00479164   -0.00000000   2       8  H.gga
    4.36762490    1.25524151    0.00000000   2       9  H.gga
    4.39091627    3.78225413    0.00000000   2      10  H.gga
    0.03257262    3.81565601   -0.00000000   2      11  H.gga
    0.00470920    1.30032146    0.00000000   2      12  H.gga
    2.28755811    5.31817748    0.00000001   3      13  O.gga

outcell: Unit cell vectors (Ang):
       20.000000    0.000000    0.000000
        0.000000   20.000000    0.000000
        0.000000    0.000000   20.000000

outcell: Cell vector modules (Ang)   :   20.000000   20.000000   20.000000
outcell: Cell angles (23,13,12) (deg):     90.0000     90.0000     90.0000
outcell: Cell volume (Ang**3)        :   8000.0000
<dSpData1D:S at geom step 112
  <sparsity:sparsity for geom step 112
    nrows_g=121 nrows=121 sparsity=.9980 nnzs=14611, refcount: 7>
  <dData1D:(new from dSpData1D) n=14611, refcount: 1>
refcount: 1>
new_DM -- step:   113
Re-using DM from previous geometries...
Number of DMs in history: 1
 DM extrapolation coefficients: 
1   1.00000
New DM after history re-use:
<dSpData2D:SpM extrapolated using coords
  <sparsity:sparsity for geom step 112
    nrows_g=121 nrows=121 sparsity=.9980 nnzs=14611, refcount: 8>
  <dData2D:(temp array for extrapolation) n=14611 m=1, refcount: 1>
refcount: 1>
No. of atoms with KB's overlaping orbs in proc 0. Max # of overlaps:      13     117
New grid distribution:   1
           1       1:  108    1:  108    1:  108

InitMesh: MESH =   216 x   216 x   216 =    10077696
InitMesh: (bp) =   108 x   108 x   108 =     1259712
InitMesh: Mesh cutoff (required, used) =   300.000   322.366 Ry
ExtMesh (bp) on 0 =   188 x   188 x   188 =     6644672
PhiOnMesh: Number of (b)points on node 0 =              1259712
PhiOnMesh: nlist on node 0 =              2631199

        iscf     Eharris(eV)        E_KS(eV)     FreeEng(eV)     dDmax    Ef(eV) dHmax(eV)
   scf:    1    -1515.728637    -1515.727416    -1515.727416  0.000723 -3.092720  0.007294
   scf:    2    -1515.727390    -1515.727410    -1515.727410  0.000320 -3.094223  0.015096
   scf:    3    -1515.727421    -1515.727419    -1515.727419  0.000209 -3.093269  0.001172
   scf:    4    -1515.727419    -1515.727419    -1515.727419  0.000011 -3.093289  0.000718

SCF Convergence by DM+H criterion
max |DM_out - DM_in|         :     0.0000105036
max |H_out - H_in|      (eV) :     0.0007182898
SCF cycle converged after 4 iterations

Using DM_out to compute the final energy and forces
No. of atoms with KB's overlaping orbs in proc 0. Max # of overlaps:      13     117

siesta: E_KS(eV) =            -1515.7274

siesta: Atomic forces (eV/Ang):
----------------------------------------
   Tot   -0.040877    0.019007    0.000000
----------------------------------------
   Max    0.027357
   Res    0.010711    sqrt( Sum f_i^2 / 3N )
----------------------------------------
   Max    0.027357    constrained

Stress-tensor-Voigt (kbar):        0.01        0.01        0.00       -0.02       -0.00        0.00
(Free)E + p*V (eV/cell)    -1515.7582
Target enthalpy (eV/cell)    -1515.7274

                     ====================================
                        Begin FIRE opt. move =    113
                     ====================================

outcoor: Atomic coordinates (Ang):                          
    2.18517714    1.11152010   -0.00000000   1       1  C.gga
    3.41048382    1.81377318   -0.00000000   1       2  C.gga
    3.43638591    3.22181756    0.00000000   1       3  C.gga
    2.21674908    3.94007195   -0.00000000   1       4  C.gga
    0.98479255    3.24552390    0.00000000   1       5  C.gga
    0.97442604    1.83575036    0.00000000   1       6  C.gga
    1.37556125    5.66942313   -0.00000003   2       7  H.gga
    2.17382984    0.00478608   -0.00000000   2       8  H.gga
    4.36760587    1.25526996    0.00000000   2       9  H.gga
    4.39090731    3.78227959    0.00000000   2      10  H.gga
    0.03256990    3.81563113   -0.00000000   2      11  H.gga
    0.00469553    1.30030576    0.00000000   2      12  H.gga
    2.28752206    5.31818827    0.00000001   3      13  O.gga

outcell: Unit cell vectors (Ang):
       20.000000    0.000000    0.000000
        0.000000   20.000000    0.000000
        0.000000    0.000000   20.000000

outcell: Cell vector modules (Ang)   :   20.000000   20.000000   20.000000
outcell: Cell angles (23,13,12) (deg):     90.0000     90.0000     90.0000
outcell: Cell volume (Ang**3)        :   8000.0000
<dSpData1D:S at geom step 113
  <sparsity:sparsity for geom step 113
    nrows_g=121 nrows=121 sparsity=.9980 nnzs=14611, refcount: 7>
  <dData1D:(new from dSpData1D) n=14611, refcount: 1>
refcount: 1>
new_DM -- step:   114
Re-using DM from previous geometries...
Number of DMs in history: 1
 DM extrapolation coefficients: 
1   1.00000
New DM after history re-use:
<dSpData2D:SpM extrapolated using coords
  <sparsity:sparsity for geom step 113
    nrows_g=121 nrows=121 sparsity=.9980 nnzs=14611, refcount: 8>
  <dData2D:(temp array for extrapolation) n=14611 m=1, refcount: 1>
refcount: 1>
No. of atoms with KB's overlaping orbs in proc 0. Max # of overlaps:      13     117
New grid distribution:   1
           1       1:  108    1:  108    1:  108

InitMesh: MESH =   216 x   216 x   216 =    10077696
InitMesh: (bp) =   108 x   108 x   108 =     1259712
InitMesh: Mesh cutoff (required, used) =   300.000   322.366 Ry
ExtMesh (bp) on 0 =   188 x   188 x   188 =     6644672
PhiOnMesh: Number of (b)points on node 0 =              1259712
PhiOnMesh: nlist on node 0 =              2631238

        iscf     Eharris(eV)        E_KS(eV)     FreeEng(eV)     dDmax    Ef(eV) dHmax(eV)
   scf:    1    -1515.727370    -1515.727431    -1515.727431  0.000106 -3.093213  0.001143
   scf:    2    -1515.727431    -1515.727431    -1515.727431  0.000052 -3.092862  0.002390
   scf:    3    -1515.727431    -1515.727431    -1515.727431  0.000033 -3.093089  0.000274

SCF Convergence by DM+H criterion
max |DM_out - DM_in|         :     0.0000333747
max |H_out - H_in|      (eV) :     0.0002742228
SCF cycle converged after 3 iterations

Using DM_out to compute the final energy and forces
No. of atoms with KB's overlaping orbs in proc 0. Max # of overlaps:      13     117

siesta: E_KS(eV) =            -1515.7274

siesta: Atomic forces (eV/Ang):
----------------------------------------
   Tot   -0.041129    0.018890    0.000000
----------------------------------------
   Max    0.018531
   Res    0.006892    sqrt( Sum f_i^2 / 3N )
----------------------------------------
   Max    0.018531    constrained

Stress-tensor-Voigt (kbar):        0.00        0.01        0.00       -0.01        0.00       -0.00
(Free)E + p*V (eV/cell)    -1515.7576
Target enthalpy (eV/cell)    -1515.7274

                     ====================================
                        Begin FIRE opt. move =    114
                     ====================================

outcoor: Atomic coordinates (Ang):                          
    2.18507704    1.11156043   -0.00000000   1       1  C.gga
    3.41054627    1.81376585   -0.00000000   1       2  C.gga
    3.43627671    3.22187938    0.00000000   1       3  C.gga
    2.21683960    3.94005780   -0.00000000   1       4  C.gga
    0.98468859    3.24555624    0.00000000   1       5  C.gga
    0.97450115    1.83568147    0.00000000   1       6  C.gga
    1.37555394    5.66943827   -0.00000003   2       7  H.gga
    2.17384336    0.00478022   -0.00000000   2       8  H.gga
    4.36758377    1.25530566    0.00000000   2       9  H.gga
    4.39089338    3.78231219    0.00000000   2      10  H.gga
    0.03256307    3.81560046   -0.00000000   2      11  H.gga
    0.00467953    1.30028549    0.00000000   2      12  H.gga
    2.28747819    5.31820165    0.00000000   3      13  O.gga

outcell: Unit cell vectors (Ang):
       20.000000    0.000000    0.000000
        0.000000   20.000000    0.000000
        0.000000    0.000000   20.000000

outcell: Cell vector modules (Ang)   :   20.000000   20.000000   20.000000
outcell: Cell angles (23,13,12) (deg):     90.0000     90.0000     90.0000
outcell: Cell volume (Ang**3)        :   8000.0000
<dSpData1D:S at geom step 114
  <sparsity:sparsity for geom step 114
    nrows_g=121 nrows=121 sparsity=.9980 nnzs=14611, refcount: 7>
  <dData1D:(new from dSpData1D) n=14611, refcount: 1>
refcount: 1>
new_DM -- step:   115
Re-using DM from previous geometries...
Number of DMs in history: 1
 DM extrapolation coefficients: 
1   1.00000
New DM after history re-use:
<dSpData2D:SpM extrapolated using coords
  <sparsity:sparsity for geom step 114
    nrows_g=121 nrows=121 sparsity=.9980 nnzs=14611, refcount: 8>
  <dData2D:(temp array for extrapolation) n=14611 m=1, refcount: 1>
refcount: 1>
No. of atoms with KB's overlaping orbs in proc 0. Max # of overlaps:      13     117
New grid distribution:   1
           1       1:  108    1:  108    1:  108

InitMesh: MESH =   216 x   216 x   216 =    10077696
InitMesh: (bp) =   108 x   108 x   108 =     1259712
InitMesh: Mesh cutoff (required, used) =   300.000   322.366 Ry
ExtMesh (bp) on 0 =   188 x   188 x   188 =     6644672
PhiOnMesh: Number of (b)points on node 0 =              1259712
PhiOnMesh: nlist on node 0 =              2631274

        iscf     Eharris(eV)        E_KS(eV)     FreeEng(eV)     dDmax    Ef(eV) dHmax(eV)
   scf:    1    -1515.727370    -1515.727438    -1515.727438  0.000146 -3.092989  0.001313
   scf:    2    -1515.727437    -1515.727438    -1515.727438  0.000059 -3.092623  0.002820
   scf:    3    -1515.727438    -1515.727438    -1515.727438  0.000041 -3.092863  0.000164

SCF Convergence by DM+H criterion
max |DM_out - DM_in|         :     0.0000410374
max |H_out - H_in|      (eV) :     0.0001642465
SCF cycle converged after 3 iterations

Using DM_out to compute the final energy and forces
No. of atoms with KB's overlaping orbs in proc 0. Max # of overlaps:      13     117

siesta: E_KS(eV) =            -1515.7274

siesta: Atomic forces (eV/Ang):
----------------------------------------
   Tot   -0.040887    0.018502    0.000000
----------------------------------------
   Max    0.007707
   Res    0.003345    sqrt( Sum f_i^2 / 3N )
----------------------------------------
   Max    0.007707    constrained

Stress-tensor-Voigt (kbar):        0.00        0.01        0.00       -0.01       -0.00        0.00
(Free)E + p*V (eV/cell)    -1515.7571
Target enthalpy (eV/cell)    -1515.7274

outcoor: Relaxed atomic coordinates (Ang):                  
    2.18507704    1.11156043   -0.00000000   1       1  C.gga
    3.41054627    1.81376585   -0.00000000   1       2  C.gga
    3.43627671    3.22187938    0.00000000   1       3  C.gga
    2.21683960    3.94005780   -0.00000000   1       4  C.gga
    0.98468859    3.24555624    0.00000000   1       5  C.gga
    0.97450115    1.83568147    0.00000000   1       6  C.gga
    1.37555394    5.66943827   -0.00000003   2       7  H.gga
    2.17384336    0.00478022   -0.00000000   2       8  H.gga
    4.36758377    1.25530566    0.00000000   2       9  H.gga
    4.39089338    3.78231219    0.00000000   2      10  H.gga
    0.03256307    3.81560046   -0.00000000   2      11  H.gga
    0.00467953    1.30028549    0.00000000   2      12  H.gga
    2.28747819    5.31820165    0.00000000   3      13  O.gga

coxmol: Writing XMOL coordinates into file Phenol.xyz                                                          

siesta: Program's energy decomposition (eV):
siesta: Ebs     =      -459.033008
siesta: Eions   =      2250.705553
siesta: Ena     =       437.881001
siesta: Ekin    =      1024.189136
siesta: Enl     =      -188.594454
siesta: Eso     =         0.000000
siesta: Eldau   =         0.000000
siesta: DEna    =       -44.900516
siesta: DUscf   =         5.317876
siesta: DUext   =         0.000000
siesta: Exc     =      -498.914929
siesta: eta*DQ  =         0.000000
siesta: Emadel  =         0.000000
siesta: Emeta   =         0.000000
siesta: Emolmec =         0.000000
siesta: Ekinion =         0.000000
siesta: Eharris =     -1515.727438
siesta: Etot    =     -1515.727438
siesta: FreeEng =     -1515.727438

siesta: Final energy (eV):
siesta:  Band Struct. =    -459.033008
siesta:       Kinetic =    1024.189136
siesta:       Hartree =    3565.392198
siesta:       Eldau   =       0.000000
siesta:       Eso     =       0.000000
siesta:    Ext. field =       0.000000
siesta:   Exch.-corr. =    -498.914929
siesta:  Ion-electron =   -8042.510271
siesta:       Ion-ion =    2436.116427
siesta:       Ekinion =       0.000000
siesta:         Total =   -1515.727438
siesta:         Fermi =      -3.092863

siesta: Stress tensor (static) (eV/Ang**3):
siesta:     0.000002   -0.000006    0.000000
siesta:    -0.000006    0.000007   -0.000000
siesta:     0.000000   -0.000000    0.000003

siesta: Cell volume =       8000.000000 Ang**3

siesta: Pressure (static):
siesta:                Solid            Molecule  Units
siesta:          -0.00000004         -0.00000005  Ry/Bohr**3
siesta:          -0.00000371         -0.00000415  eV/Ang**3
siesta:          -0.00594349         -0.00664745  kBar
(Free)E+ p_basis*V_orbitals  =       -1508.493714
(Free)Eharris+ p_basis*V_orbitals  =       -1508.493714

siesta: Electric dipole (a.u.)  =   -0.453790    0.073624   -0.000000
siesta: Electric dipole (Debye) =   -1.153420    0.187134   -0.000000

timer: Elapsed wall time (sec) =    2410.553
timer: CPU execution times (sec):

Routine            Calls   Time/call    Tot.time        %
siesta                 1    2410.552    2410.552   100.00
Setup                  1       0.258       0.258     0.01
bands                  1       0.000       0.000     0.00
KSV_init               1       0.000       0.000     0.00
IterGeom             115      20.959    2410.272    99.99
state_init           115       0.011       1.294     0.05
hsparse              115       0.001       0.073     0.00
overlap              115       0.009       1.026     0.04
Setup_H0             115       3.060     351.939    14.60
naefs                230       0.000       0.018     0.00
MolMec               230       0.000       0.000     0.00
kinefsm              230       0.007       1.624     0.07
nlefsm               230       0.039       8.980     0.37
DHSCF_Init           115       3.015     346.692    14.38
DHSCF1               115       0.084       9.653     0.40
INITMESH             115       0.000       0.001     0.00
DHSCF2               115       2.931     337.039    13.98
REMESH               115       0.100      11.535     0.48
REORD               3083       0.017      51.632     2.14
PHION                115       1.712     196.870     8.17
COMM_BSC            1703       0.017      29.513     1.22
POISON               794       0.786     624.329    25.90
fft                 1588       0.310     492.152    20.42
IterSCF              449       3.147    1413.078    58.62
setup_H              564       2.499    1409.177    58.46
DHSCF                679       3.001    2038.002    84.54
DHSCF3               679       2.488    1689.246    70.08
rhoofd               679       0.355     240.847     9.99
CellXC               679       0.906     614.894    25.51
cellXC               679       0.906     614.886    25.51
vmat                 679       0.226     153.439     6.37
compute_dm           449       0.006       2.827     0.12
diagon               449       0.005       2.452     0.10
r-eigvec             449       0.005       2.147     0.09
r-buildHS            449       0.000       0.034     0.00
rdiag                449       0.005       2.111     0.09
rdiag1               449       0.000       0.124     0.01
rdiag2               449       0.001       0.299     0.01
rdiag3               449       0.003       1.431     0.06
rdiag4               449       0.001       0.249     0.01
r-buildD             449       0.000       0.220     0.01
MIXER                334       0.000       0.135     0.01
PostSCF              115       5.594     643.306    26.69
DHSCF4               115       3.033     348.754    14.47
dfscf                115       2.548     292.999    12.15
overfsm              115       0.005       0.553     0.02
state_analysis       115       0.002       0.272     0.01
siesta_move          115       0.001       0.115     0.00
Analysis               1       0.003       0.003     0.00
optical                1       0.000       0.000     0.00
  
>> End of run:  22-MAR-2019  12:06:22
Job completed
