
                           ***********************       
                           *  WELCOME TO SIESTA  *       
                           ***********************       

reinit: Reading from input.fdf

reinit: -----------------------------------------------------------------------
reinit: System Name: 
reinit: -----------------------------------------------------------------------
reinit: System Label: Phenol
reinit: -----------------------------------------------------------------------
Siesta Version: siesta-4.1--736
Architecture  : unknown
Compiler flags: gfortran -O3 -fPIC -ftree-vectorize -fopenmp
PP flags      : -DFC_HAVE_ABORT
Libraries     : -L/usr/local/opt/openblas/lib -lopenblas -fopenmp
SERIAL version

* Running in serial mode
* Running 4 OpenMP threads.
* Running 4 processes.
* OpenMP version 201511
* OpenMP runtime schedule DYNAMIC, chunks 1
** OpenMP runtime schedule DYNAMIC, chunks 32
>> Start of run:  22-MAR-2019  12:23:05

initatom: Reading input for the pseudopotentials and atomic orbitals ----------
Species number:   1 Atomic number:    6 Label: C.gga
Species number:   2 Atomic number:    1 Label: H.gga
Species number:   3 Atomic number:    8 Label: O.gga

Ground state valence configuration:   2s02  2p02
Reading pseudopotential information in formatted form from C.gga.psf

Valence configuration for pseudopotential generation:
2s( 2.00) rc: 1.54
2p( 2.00) rc: 1.54
3d( 0.00) rc: 1.54
4f( 0.00) rc: 1.54
Ground state valence configuration:   1s01
Reading pseudopotential information in formatted form from H.gga.psf

Valence configuration for pseudopotential generation:
1s( 1.00) rc: 1.31
2p( 0.00) rc: 1.31
3d( 0.00) rc: 0.37
4f( 0.00) rc: 1.31
Ground state valence configuration:   2s02  2p04
Reading pseudopotential information in formatted form from O.gga.psf

Valence configuration for pseudopotential generation:
2s( 2.00) rc: 1.47
2p( 4.00) rc: 1.47
3d( 0.00) rc: 1.47
4f( 0.00) rc: 1.47
For C.gga, standard SIESTA heuristics set lmxkb to 3
 (one more than the basis l, including polarization orbitals).
Use PS.lmax or PS.KBprojectors blocks to override.
For H.gga, standard SIESTA heuristics set lmxkb to 2
 (one more than the basis l, including polarization orbitals).
Use PS.lmax or PS.KBprojectors blocks to override.
For O.gga, standard SIESTA heuristics set lmxkb to 3
 (one more than the basis l, including polarization orbitals).
Use PS.lmax or PS.KBprojectors blocks to override.

<basis_specs>
===============================================================================
C.gga                Z=   6    Mass=  12.010        Charge= 0.17977+309
Lmxo=1 Lmxkb= 3    BasisType=split      Semic=F
L=0  Nsemic=0  Cnfigmx=2
          n=1  nzeta=2  polorb=0
            splnorm:   0.15000    
               vcte:    0.0000    
               rinn:    0.0000    
               qcoe:    0.0000    
               qyuk:    0.0000    
               qwid:   0.10000E-01
                rcs:    0.0000      0.0000    
            lambdas:    1.0000      1.0000    
L=1  Nsemic=0  Cnfigmx=2
          n=1  nzeta=2  polorb=1
            splnorm:   0.15000    
               vcte:    0.0000    
               rinn:    0.0000    
               qcoe:    0.0000    
               qyuk:    0.0000    
               qwid:   0.10000E-01
                rcs:    0.0000      0.0000    
            lambdas:    1.0000      1.0000    
-------------------------------------------------------------------------------
L=0  Nkbl=1  erefs: 0.17977+309
L=1  Nkbl=1  erefs: 0.17977+309
L=2  Nkbl=1  erefs: 0.17977+309
L=3  Nkbl=1  erefs: 0.17977+309
===============================================================================
</basis_specs>

atom: Called for C.gga                 (Z =   6)

read_vps: Pseudopotential generation method:
read_vps: ATM3      Troullier-Martins                       
Total valence charge:    4.00000

read_vps: Pseudopotential includes a core correction:
read_vps: Pseudo-core for xc-correction

xc_check: Exchange-correlation functional:
xc_check: GGA Perdew, Burke & Ernzerhof 1996
V l=0 = -2*Zval/r beyond r=  1.5227
V l=1 = -2*Zval/r beyond r=  1.5227
V l=2 = -2*Zval/r beyond r=  1.5227
V l=3 = -2*Zval/r beyond r=  1.5038
All V_l potentials equal beyond r=  1.5227
This should be close to max(r_c) in ps generation
All pots = -2*Zval/r beyond r=  1.5227

VLOCAL1: 99.0% of the norm of Vloc inside     18.722 Ry
VLOCAL1: 99.9% of the norm of Vloc inside     42.668 Ry
atom: Maximum radius for 4*pi*r*r*local-pseudopot. charge    1.83678
atom: Maximum radius for r*vlocal+2*Zval:    1.58088
GHOST: No ghost state for L =  0
GHOST: No ghost state for L =  1
GHOST: No ghost state for L =  2
GHOST: No ghost state for L =  3

KBgen: Kleinman-Bylander projectors: 
   l= 0   rc=  1.704034   el= -1.009801   Ekb=  5.335044   kbcos=  0.316824
   l= 1   rc=  1.704034   el= -0.388707   Ekb= -3.785862   kbcos= -0.366464
   l= 2   rc=  1.791422   el=  0.001971   Ekb= -0.970471   kbcos= -0.009212
   l= 3   rc=  1.859892   el=  0.003065   Ekb= -0.399525   kbcos= -0.001223

KBgen: Total number of  Kleinman-Bylander projectors:   16
atom: -------------------------------------------------------------------------

atom: SANKEY-TYPE ORBITALS:
atom: Selected multiple-zeta basis: split     

SPLIT: Orbitals with angular momentum L= 0

SPLIT: Basis orbitals for state 2s

SPLIT: PAO cut-off radius determined from an
SPLIT: energy shift=  0.002205 Ry

   izeta = 1
                 lambda =    1.000000
                     rc =    5.382558
                 energy =   -1.007983
                kinetic =    0.829025
    potential(screened) =   -1.837009
       potential(ionic) =   -5.376592

   izeta = 2
                 rmatch =    3.475094
              splitnorm =    0.150000
                 energy =   -0.876935
                kinetic =    1.279964
    potential(screened) =   -2.156899
       potential(ionic) =   -5.943761

SPLIT: Orbitals with angular momentum L= 1

SPLIT: Basis orbitals for state 2p

SPLIT: PAO cut-off radius determined from an
SPLIT: energy shift=  0.002205 Ry

   izeta = 1
                 lambda =    1.000000
                     rc =    6.740804
                 energy =   -0.386704
                kinetic =    2.327316
    potential(screened) =   -2.714020
       potential(ionic) =   -6.100339

   izeta = 2
                 rmatch =    3.792903
              splitnorm =    0.150000
                 energy =   -0.270625
                kinetic =    3.420974
    potential(screened) =   -3.691599
       potential(ionic) =   -7.453004

POLgen: Perturbative polarization orbital with L=  2

POLgen: Polarization orbital for state 2p

   izeta = 1
                     rc =    6.740804
                 energy =    0.975645
                kinetic =    2.058046
    potential(screened) =   -1.082401
       potential(ionic) =   -3.782952
atom: Total number of Sankey-type orbitals: 13

atm_pop: Valence configuration (for local Pseudopot. screening):
 2s( 2.00)                                                            
 2p( 2.00)                                                            
Vna: chval, zval:    4.00000   4.00000

Vna:  Cut-off radius for the neutral-atom potential:   6.740804
comcore: Pseudo-core radius Rcore=  1.791422

atom: _________________________________________________________________________

<basis_specs>
===============================================================================
H.gga                Z=   1    Mass=  1.0100        Charge= 0.17977+309
Lmxo=0 Lmxkb= 2    BasisType=split      Semic=F
L=0  Nsemic=0  Cnfigmx=1
          n=1  nzeta=2  polorb=1
            splnorm:   0.15000    
               vcte:    0.0000    
               rinn:    0.0000    
               qcoe:    0.0000    
               qyuk:    0.0000    
               qwid:   0.10000E-01
                rcs:    0.0000      0.0000    
            lambdas:    1.0000      1.0000    
-------------------------------------------------------------------------------
L=0  Nkbl=1  erefs: 0.17977+309
L=1  Nkbl=1  erefs: 0.17977+309
L=2  Nkbl=1  erefs: 0.17977+309
===============================================================================
</basis_specs>

atom: Called for H.gga                 (Z =   1)

read_vps: Pseudopotential generation method:
read_vps: ATM3      Troullier-Martins                       
Total valence charge:    1.00000

xc_check: Exchange-correlation functional:
xc_check: GGA Perdew, Burke & Ernzerhof 1996
V l=0 = -2*Zval/r beyond r=  1.2977
V l=1 = -2*Zval/r beyond r=  1.2815
V l=2 = -2*Zval/r beyond r=  1.2656
All V_l potentials equal beyond r=  1.2977
This should be close to max(r_c) in ps generation
All pots = -2*Zval/r beyond r=  1.2977

VLOCAL1: 99.0% of the norm of Vloc inside     25.776 Ry
VLOCAL1: 99.9% of the norm of Vloc inside     58.745 Ry
atom: Maximum radius for 4*pi*r*r*local-pseudopot. charge    1.52711
atom: Maximum radius for r*vlocal+2*Zval:    1.28155
GHOST: No ghost state for L =  0
GHOST: No ghost state for L =  1
GHOST: No ghost state for L =  2

KBgen: Kleinman-Bylander projectors: 
   l= 0   rc=  1.434438   el= -0.477200   Ekb= -1.957043   kbcos= -0.361614
   l= 1   rc=  1.508111   el=  0.001076   Ekb= -0.424224   kbcos= -0.025441
   l= 2   rc=  1.527112   el=  0.002010   Ekb= -0.378578   kbcos= -0.002010

KBgen: Total number of  Kleinman-Bylander projectors:    9
atom: -------------------------------------------------------------------------

atom: SANKEY-TYPE ORBITALS:
atom: Selected multiple-zeta basis: split     

SPLIT: Orbitals with angular momentum L= 0

SPLIT: Basis orbitals for state 1s

SPLIT: PAO cut-off radius determined from an
SPLIT: energy shift=  0.002205 Ry

   izeta = 1
                 lambda =    1.000000
                     rc =    6.518340
                 energy =   -0.475328
                kinetic =    0.879188
    potential(screened) =   -1.354517
       potential(ionic) =   -1.873657

   izeta = 2
                 rmatch =    4.103729
              splitnorm =    0.150000
                 energy =   -0.382914
                kinetic =    1.427335
    potential(screened) =   -1.810249
       potential(ionic) =   -2.357086

POLgen: Perturbative polarization orbital with L=  1

POLgen: Polarization orbital for state 1s

   izeta = 1
                     rc =    6.518340
                 energy =    0.536347
                kinetic =    1.136516
    potential(screened) =   -0.600169
       potential(ionic) =   -1.065665
atom: Total number of Sankey-type orbitals:  5

atm_pop: Valence configuration (for local Pseudopot. screening):
 1s( 1.00)                                                            
Vna: chval, zval:    1.00000   1.00000

Vna:  Cut-off radius for the neutral-atom potential:   6.518340

atom: _________________________________________________________________________

<basis_specs>
===============================================================================
O.gga                Z=   8    Mass=  16.000        Charge= 0.17977+309
Lmxo=1 Lmxkb= 3    BasisType=split      Semic=F
L=0  Nsemic=0  Cnfigmx=2
          n=1  nzeta=2  polorb=0
            splnorm:   0.15000    
               vcte:    0.0000    
               rinn:    0.0000    
               qcoe:    0.0000    
               qyuk:    0.0000    
               qwid:   0.10000E-01
                rcs:    0.0000      0.0000    
            lambdas:    1.0000      1.0000    
L=1  Nsemic=0  Cnfigmx=2
          n=1  nzeta=2  polorb=1
            splnorm:   0.15000    
               vcte:    0.0000    
               rinn:    0.0000    
               qcoe:    0.0000    
               qyuk:    0.0000    
               qwid:   0.10000E-01
                rcs:    0.0000      0.0000    
            lambdas:    1.0000      1.0000    
-------------------------------------------------------------------------------
L=0  Nkbl=1  erefs: 0.17977+309
L=1  Nkbl=1  erefs: 0.17977+309
L=2  Nkbl=1  erefs: 0.17977+309
L=3  Nkbl=1  erefs: 0.17977+309
===============================================================================
</basis_specs>

atom: Called for O.gga                 (Z =   8)

read_vps: Pseudopotential generation method:
read_vps: ATM3      Troullier-Martins                       
Total valence charge:    6.00000

read_vps: Pseudopotential includes a core correction:
read_vps: Pseudo-core for xc-correction

xc_check: Exchange-correlation functional:
xc_check: GGA Perdew, Burke & Ernzerhof 1996
V l=0 = -2*Zval/r beyond r=  1.4482
V l=1 = -2*Zval/r beyond r=  1.4482
V l=2 = -2*Zval/r beyond r=  1.4482
V l=3 = -2*Zval/r beyond r=  1.4482
All V_l potentials equal beyond r=  1.4482
This should be close to max(r_c) in ps generation
All pots = -2*Zval/r beyond r=  1.4482

VLOCAL1: 99.0% of the norm of Vloc inside     20.696 Ry
VLOCAL1: 99.9% of the norm of Vloc inside     47.167 Ry
atom: Maximum radius for 4*pi*r*r*local-pseudopot. charge    1.74697
atom: Maximum radius for r*vlocal+2*Zval:    1.52250
GHOST: No ghost state for L =  0
GHOST: No ghost state for L =  1
GHOST: No ghost state for L =  2
GHOST: No ghost state for L =  3

KBgen: Kleinman-Bylander projectors: 
   l= 0   rc=  1.620715   el= -1.757696   Ekb=  4.880948   kbcos=  0.293490
   l= 1   rc=  1.600578   el= -0.664256   Ekb= -6.909822   kbcos= -0.499892
   l= 2   rc=  1.703827   el=  0.002031   Ekb= -1.539219   kbcos= -0.006778
   l= 3   rc=  1.746967   el=  0.003153   Ekb= -0.568983   kbcos= -0.000967

KBgen: Total number of  Kleinman-Bylander projectors:   16
atom: -------------------------------------------------------------------------

atom: SANKEY-TYPE ORBITALS:
atom: Selected multiple-zeta basis: split     

SPLIT: Orbitals with angular momentum L= 0

SPLIT: Basis orbitals for state 2s

SPLIT: PAO cut-off radius determined from an
SPLIT: energy shift=  0.002205 Ry

   izeta = 1
                 lambda =    1.000000
                     rc =    4.139122
                 energy =   -1.755549
                kinetic =    1.529685
    potential(screened) =   -3.285233
       potential(ionic) =  -11.160563

   izeta = 2
                 rmatch =    2.541963
              splitnorm =    0.150000
                 energy =   -1.517776
                kinetic =    2.348222
    potential(screened) =   -3.865999
       potential(ionic) =  -12.356890

SPLIT: Orbitals with angular momentum L= 1

SPLIT: Basis orbitals for state 2p

SPLIT: PAO cut-off radius determined from an
SPLIT: energy shift=  0.002205 Ry

   izeta = 1
                 lambda =    1.000000
                     rc =    5.314825
                 energy =   -0.662390
                kinetic =    4.472446
    potential(screened) =   -5.134836
       potential(ionic) =  -12.694617

   izeta = 2
                 rmatch =    2.705925
              splitnorm =    0.150000
                 energy =   -0.427537
                kinetic =    6.597007
    potential(screened) =   -7.024544
       potential(ionic) =  -15.479186

POLgen: Perturbative polarization orbital with L=  2

POLgen: Polarization orbital for state 2p

   izeta = 1
                     rc =    5.314825
                 energy =    1.979175
                kinetic =    4.015874
    potential(screened) =   -2.036699
       potential(ionic) =   -7.919671
atom: Total number of Sankey-type orbitals: 13

atm_pop: Valence configuration (for local Pseudopot. screening):
 2s( 2.00)                                                            
 2p( 4.00)                                                            
Vna: chval, zval:    6.00000   6.00000

Vna:  Cut-off radius for the neutral-atom potential:   5.314825
comcore: Pseudo-core radius Rcore=  1.377587

atom: _________________________________________________________________________

prinput: Basis input ----------------------------------------------------------

PAO.BasisType split     

%block ChemicalSpeciesLabel
    1    6 C.gga                   # Species index, atomic number, species label
    2    1 H.gga                   # Species index, atomic number, species label
    3    8 O.gga                   # Species index, atomic number, species label
%endblock ChemicalSpeciesLabel

%block PAO.Basis                 # Define Basis set
C.gga                 2                    # Species label, number of l-shells
 n=2   0   2                         # n, l, Nzeta 
   5.383      3.475   
   1.000      1.000   
 n=2   1   2 P   1                   # n, l, Nzeta, Polarization, NzetaPol
   6.741      3.793   
   1.000      1.000   
H.gga                 1                    # Species label, number of l-shells
 n=1   0   2 P   1                   # n, l, Nzeta, Polarization, NzetaPol
   6.518      4.104   
   1.000      1.000   
O.gga                 2                    # Species label, number of l-shells
 n=2   0   2                         # n, l, Nzeta 
   4.139      2.542   
   1.000      1.000   
 n=2   1   2 P   1                   # n, l, Nzeta, Polarization, NzetaPol
   5.315      2.706   
   1.000      1.000   
%endblock PAO.Basis

prinput: ----------------------------------------------------------------------

coor:   Atomic-coordinates input format  =     Cartesian coordinates
coor:                                          (in Angstroms)

siesta: Atomic coordinates (Bohr) and species
siesta:      4.13884   2.11496   0.00000  1        1
siesta:      6.44149   3.41145   0.00000  1        2
siesta:      6.47265   6.05474   0.00000  1        3
siesta:      4.19960   7.40994   0.00000  1        4
siesta:      1.88980   6.10327   0.00000  1        5
siesta:      1.86435   3.46007   0.00000  1        6
siesta:      2.71593  10.95093   0.00000  2        7
siesta:      4.11709   0.06975   0.00000  2        8
siesta:      8.20111   2.36877   0.00000  2        9
siesta:      8.26045   7.04989   0.00000  2       10
siesta:      0.12145   7.13257   0.00000  2       11
siesta:      0.08288   2.45511   0.00000  2       12
siesta:      4.25190   9.95775   0.00000  3       13

siesta: System type = molecule  

initatomlists: Number of atoms, orbitals, and projectors:     13   121   166

coxmol: Writing XMOL coordinates into file Phenol.xyz                                                          

siesta: ******************** Simulation parameters ****************************
siesta:
siesta: The following are some of the parameters of the simulation.
siesta: A complete list of the parameters used, including default values,
siesta: can be found in file out.fdf
siesta:
redata: Spin configuration                          = none
redata: Number of spin components                   = 1
redata: Time-Reversal Symmetry                      = T
redata: Spin-spiral                                 = F
redata: Long output                                 =   F
redata: Number of Atomic Species                    =        3
redata: Charge density info will appear in .RHO file
redata: Write Mulliken Pop.                         = NO
redata: Mesh Cutoff                                 =   300.0000 Ry
redata: Net charge of the system                    =     0.0000 |e|
redata: Min. number of SCF Iter                     =        0
redata: Max. number of SCF Iter                     =     1000
redata: SCF mix quantity                            = Hamiltonian
redata: Mix DM or H after convergence               =   F
redata: Recompute H after scf cycle                 =   F
redata: Mix DM in first SCF step                    =   T
redata: Write Pulay info on disk                    =   F
redata: New DM Mixing Weight                        =     0.2500
redata: New DM Occupancy tolerance                  = 0.000000000001
redata: No kicks to SCF
redata: DM Mixing Weight for Kicks                  =     0.5000
redata: Require Harris convergence for SCF          =   F
redata: Harris energy tolerance for SCF             =     0.000100 eV
redata: Require DM convergence for SCF              =   T
redata: DM tolerance for SCF                        =     0.0001
redata: Require EDM convergence for SCF             =   F
redata: EDM tolerance for SCF                       =     0.001000 eV
redata: Require H convergence for SCF               =   T
redata: Hamiltonian tolerance for SCF               =     0.001000 eV
redata: Require (free) Energy convergence for SCF   =   F
redata: (free) Energy tolerance for SCF             =     0.000100 eV
redata: Using Saved Data (generic)                  =   F
redata: Use continuation files for DM               =   F
redata: Neglect nonoverlap interactions             =   F
redata: Method of Calculation                       = Diagonalization
redata: Divide and Conquer                          =   T
redata: Electronic Temperature                      =   299.9869 K
redata: Fix the spin of the system                  =   F
redata: Dynamics option                             = FIRE coord. optimization
redata: Variable cell                               =   F
redata: Use continuation files for CG               =   F
redata: Max atomic displ per move                   =     0.1058 Ang
redata: Maximum number of CG moves                  =     1000
redata: Force tolerance                             =     0.0100 eV/Ang
mix.SCF: Pulay mixing                            = Pulay
mix.SCF:    Variant                              = stable
mix.SCF:    History steps                        = 2
mix.SCF:    Linear mixing weight                 =     0.250000
mix.SCF:    Mixing weight                        =     0.250000
mix.SCF:    SVD condition                        = 0.1000E-07
redata: ***********************************************************************

%block SCF.Mixers
  Pulay
%endblock SCF.Mixers

%block SCF.Mixer.Pulay
  # Mixing method
  method pulay
  variant stable

  # Mixing options
  weight 0.2500
  weight.linear 0.2500
  history 2
%endblock SCF.Mixer.Pulay

DM_history_depth set to one: no extrapolation allowed by default for geometry relaxation
Size of DM history Fstack: 1
Total number of electrons:    36.000000
Total ionic charge:    36.000000
 Kpoints in:            1 . Kpoints trimmed:            1

siesta: k-grid: Number of k-points =     1
siesta: k-grid: Cutoff (effective) =    10.000 Ang
siesta: k-grid: Supercell and displacements
siesta: k-grid:    1   0   0      0.000
siesta: k-grid:    0   1   0      0.000
siesta: k-grid:    0   0   1      0.000


                     ====================================
                        Begin FIRE opt. move =      0
                     ====================================

outcoor: Atomic coordinates (Ang):                          
    2.19018000    1.11919000    0.00000000   1       1  C.gga
    3.40869000    1.80526000    0.00000000   1       2  C.gga
    3.42518000    3.20403000    0.00000000   1       3  C.gga
    2.22233000    3.92117000    0.00000000   1       4  C.gga
    1.00004000    3.22971000    0.00000000   1       5  C.gga
    0.98657000    1.83099000    0.00000000   1       6  C.gga
    1.43721000    5.79498000    0.00000000   2       7  H.gga
    2.17867000    0.03691000    0.00000000   2       8  H.gga
    4.33984000    1.25350000    0.00000000   2       9  H.gga
    4.37124000    3.73064000    0.00000000   2      10  H.gga
    0.06427000    3.77439000    0.00000000   2      11  H.gga
    0.04386000    1.29919000    0.00000000   2      12  H.gga
    2.25001000    5.26941000    0.00000000   3      13  O.gga

outcell: Unit cell vectors (Ang):
       20.000000    0.000000    0.000000
        0.000000   20.000000    0.000000
        0.000000    0.000000   20.000000

outcell: Cell vector modules (Ang)   :   20.000000   20.000000   20.000000
outcell: Cell angles (23,13,12) (deg):     90.0000     90.0000     90.0000
outcell: Cell volume (Ang**3)        :   8000.0000
<dSpData1D:S at geom step 0
  <sparsity:sparsity for geom step 0
    nrows_g=121 nrows=121 sparsity=.9985 nnzs=14619, refcount: 7>
  <dData1D:(new from dSpData1D) n=14619, refcount: 1>
refcount: 1>
new_DM -- step:     1
Initializing Density Matrix...
DM filled with atomic data:
<dSpData2D:DM initialized from atoms
  <sparsity:sparsity for geom step 0
    nrows_g=121 nrows=121 sparsity=.9985 nnzs=14619, refcount: 8>
  <dData2D:DM n=14619 m=1, refcount: 1>
refcount: 1>

No. of atoms with KB's overlaping orbs in proc 0. Max # of overlaps:      13     118
New grid distribution:   1
           1       1:  108    1:  108    1:  108

InitMesh: MESH =   216 x   216 x   216 =    10077696
InitMesh: (bp) =   108 x   108 x   108 =     1259712
InitMesh: Mesh cutoff (required, used) =   300.000   322.366 Ry
ExtMesh (bp) on 0 =   188 x   188 x   188 =     6644672
PhiOnMesh: Number of (b)points on node 0 =              1259712
PhiOnMesh: nlist on node 0 =              2631478

stepf: Fermi-Dirac step function

siesta: Program's energy decomposition (eV):
siesta: Ebs     =      -344.576689
siesta: Eions   =      2250.705553
siesta: Ena     =       437.721806
siesta: Ekin    =      1102.942223
siesta: Enl     =      -208.796467
siesta: Eso     =         0.000000
siesta: Eldau   =         0.000000
siesta: DEna    =       -89.938200
siesta: DUscf   =        14.261340
siesta: DUext   =         0.000000
siesta: Exc     =      -516.434064
siesta: eta*DQ  =         0.000000
siesta: Emadel  =         0.000000
siesta: Emeta   =         0.000000
siesta: Emolmec =         0.000000
siesta: Ekinion =         0.000000
siesta: Eharris =     -1501.243932
siesta: Etot    =     -1510.948914
siesta: FreeEng =     -1510.948914

        iscf     Eharris(eV)        E_KS(eV)     FreeEng(eV)     dDmax    Ef(eV) dHmax(eV)
   scf:    1    -1501.243932    -1510.948914    -1510.948914  1.981527 -8.456082 10.306345
timer: Routine,Calls,Time,% = IterSCF        1       5.112  42.57
   scf:    2    -1517.139230    -1514.422590    -1514.422590  0.135728 -4.893288  4.863545
   scf:    3    -1515.802749    -1515.449627    -1515.449627  0.127516 -3.238067  0.762522
   scf:    4    -1515.528109    -1515.492389    -1515.492389  0.009057 -3.220560  0.522410
   scf:    5    -1515.520476    -1515.508503    -1515.508503  0.009633 -3.175778  0.235011
   scf:    6    -1515.512135    -1515.510513    -1515.510513  0.005920 -3.123677  0.093759
   scf:    7    -1515.510864    -1515.510737    -1515.510737  0.004034 -3.074399  0.030214
   scf:    8    -1515.510961    -1515.510860    -1515.510860  0.000374 -3.071118  0.019974
   scf:    9    -1515.510937    -1515.510904    -1515.510904  0.000450 -3.070035  0.010220
   scf:   10    -1515.510914    -1515.510909    -1515.510909  0.000249 -3.070620  0.005267
   scf:   11    -1515.510912    -1515.510911    -1515.510911  0.000269 -3.071562  0.000877
   scf:   12    -1515.510911    -1515.510911    -1515.510911  0.000019 -3.071732  0.000515

SCF Convergence by DM+H criterion
max |DM_out - DM_in|         :     0.0000185880
max |H_out - H_in|      (eV) :     0.0005148364
SCF cycle converged after 12 iterations

Using DM_out to compute the final energy and forces
No. of atoms with KB's overlaping orbs in proc 0. Max # of overlaps:      13     118

siesta: E_KS(eV) =            -1515.5109

siesta: E_KS - E_eggbox =     -1515.5109

siesta: Atomic forces (eV/Ang):
----------------------------------------
   Tot    0.047125   -0.026207    0.000000
----------------------------------------
   Max    1.738037
   Res    0.565159    sqrt( Sum f_i^2 / 3N )
----------------------------------------
   Max    1.738037    constrained

Stress-tensor-Voigt (kbar):       -1.20       -1.05        0.00       -0.25       -0.00       -0.00
(Free)E + p*V (eV/cell)    -1511.7825
Target enthalpy (eV/cell)    -1515.5109
FIRE: No of elements:     39

                     ====================================
                        Begin FIRE opt. move =      1
                     ====================================

outcoor: Atomic coordinates (Ang):                          
    2.19018122    1.11919315    0.00000000   1       1  C.gga
    3.40863586    1.80529239    0.00000000   1       2  C.gga
    3.42519723    3.20401991    0.00000000   1       3  C.gga
    2.22220402    3.92115807   -0.00000000   1       4  C.gga
    1.00005817    3.22965483    0.00000000   1       5  C.gga
    0.98660790    1.83101777   -0.00000000   1       6  C.gga
    1.43714870    5.79490791   -0.00000000   2       7  H.gga
    2.17866857    0.03681829    0.00000000   2       8  H.gga
    4.33992165    1.25345839    0.00000000   2       9  H.gga
    4.37131260    3.73069543   -0.00000000   2      10  H.gga
    0.06419239    3.77444557   -0.00000000   2      11  H.gga
    0.04377769    1.29914696    0.00000000   2      12  H.gga
    2.25018886    5.26955864    0.00000000   3      13  O.gga

outcell: Unit cell vectors (Ang):
       20.000000    0.000000    0.000000
        0.000000   20.000000    0.000000
        0.000000    0.000000   20.000000

outcell: Cell vector modules (Ang)   :   20.000000   20.000000   20.000000
outcell: Cell angles (23,13,12) (deg):     90.0000     90.0000     90.0000
outcell: Cell volume (Ang**3)        :   8000.0000
<dSpData1D:S at geom step 1
  <sparsity:sparsity for geom step 1
    nrows_g=121 nrows=121 sparsity=.9985 nnzs=14619, refcount: 7>
  <dData1D:(new from dSpData1D) n=14619, refcount: 1>
refcount: 1>
new_DM -- step:     2
Re-using DM from previous geometries...
Number of DMs in history: 1
 DM extrapolation coefficients: 
1   1.00000
New DM after history re-use:
<dSpData2D:SpM extrapolated using coords
  <sparsity:sparsity for geom step 1
    nrows_g=121 nrows=121 sparsity=.9985 nnzs=14619, refcount: 8>
  <dData2D:(temp array for extrapolation) n=14619 m=1, refcount: 1>
refcount: 1>
No. of atoms with KB's overlaping orbs in proc 0. Max # of overlaps:      13     118
New grid distribution:   1
           1       1:  108    1:  108    1:  108

InitMesh: MESH =   216 x   216 x   216 =    10077696
InitMesh: (bp) =   108 x   108 x   108 =     1259712
InitMesh: Mesh cutoff (required, used) =   300.000   322.366 Ry
ExtMesh (bp) on 0 =   188 x   188 x   188 =     6644672
PhiOnMesh: Number of (b)points on node 0 =              1259712
PhiOnMesh: nlist on node 0 =              2631475

        iscf     Eharris(eV)        E_KS(eV)     FreeEng(eV)     dDmax    Ef(eV) dHmax(eV)
   scf:    1    -1515.515999    -1515.512189    -1515.512189  0.000603 -3.070325  0.003266
   scf:    2    -1515.512184    -1515.512188    -1515.512188  0.000150 -3.070252  0.006234
   scf:    3    -1515.512190    -1515.512189    -1515.512189  0.000099 -3.070376  0.000188

SCF Convergence by DM+H criterion
max |DM_out - DM_in|         :     0.0000994535
max |H_out - H_in|      (eV) :     0.0001876827
SCF cycle converged after 3 iterations

Using DM_out to compute the final energy and forces
No. of atoms with KB's overlaping orbs in proc 0. Max # of overlaps:      13     118

siesta: E_KS(eV) =            -1515.5122

siesta: Atomic forces (eV/Ang):
----------------------------------------
   Tot    0.046511   -0.025332    0.000000
----------------------------------------
   Max    1.730708
   Res    0.561770    sqrt( Sum f_i^2 / 3N )
----------------------------------------
   Max    1.730708    constrained

Stress-tensor-Voigt (kbar):       -1.19       -1.05        0.00       -0.25       -0.00       -0.00
(Free)E + p*V (eV/cell)    -1511.7933
Target enthalpy (eV/cell)    -1515.5122

                     ====================================
                        Begin FIRE opt. move =      2
                     ====================================

outcoor: Atomic coordinates (Ang):                          
    2.19018472    1.11920207    0.00000000   1       1  C.gga
    3.40847438    1.80538912    0.00000000   1       2  C.gga
    3.42524862    3.20399019    0.00000000   1       3  C.gga
    2.22182734    3.92112290   -0.00000000   1       4  C.gga
    1.00011171    3.22949019    0.00000000   1       5  C.gga
    0.98672094    1.83110024   -0.00000000   1       6  C.gga
    1.43696518    5.79469151   -0.00000000   2       7  H.gga
    2.17866428    0.03654354    0.00000000   2       8  H.gga
    4.34016607    1.25333387    0.00000000   2       9  H.gga
    4.37153013    3.73086157   -0.00000000   2      10  H.gga
    0.06395998    3.77461196   -0.00000000   2      11  H.gga
    0.04353123    1.29901811    0.00000000   2      12  H.gga
    2.25072474    5.27000405    0.00000000   3      13  O.gga

outcell: Unit cell vectors (Ang):
       20.000000    0.000000    0.000000
        0.000000   20.000000    0.000000
        0.000000    0.000000   20.000000

outcell: Cell vector modules (Ang)   :   20.000000   20.000000   20.000000
outcell: Cell angles (23,13,12) (deg):     90.0000     90.0000     90.0000
outcell: Cell volume (Ang**3)        :   8000.0000
<dSpData1D:S at geom step 2
  <sparsity:sparsity for geom step 2
    nrows_g=121 nrows=121 sparsity=.9985 nnzs=14619, refcount: 7>
  <dData1D:(new from dSpData1D) n=14619, refcount: 1>
refcount: 1>
new_DM -- step:     3
Re-using DM from previous geometries...
Number of DMs in history: 1
 DM extrapolation coefficients: 
1   1.00000
New DM after history re-use:
<dSpData2D:SpM extrapolated using coords
  <sparsity:sparsity for geom step 2
    nrows_g=121 nrows=121 sparsity=.9985 nnzs=14619, refcount: 8>
  <dData2D:(temp array for extrapolation) n=14619 m=1, refcount: 1>
refcount: 1>
No. of atoms with KB's overlaping orbs in proc 0. Max # of overlaps:      13     118
New grid distribution:   1
           1       1:  108    1:  108    1:  108

InitMesh: MESH =   216 x   216 x   216 =    10077696
InitMesh: (bp) =   108 x   108 x   108 =     1259712
InitMesh: Mesh cutoff (required, used) =   300.000   322.366 Ry
ExtMesh (bp) on 0 =   188 x   188 x   188 =     6644672
PhiOnMesh: Number of (b)points on node 0 =              1259712
PhiOnMesh: nlist on node 0 =              2631486

        iscf     Eharris(eV)        E_KS(eV)     FreeEng(eV)     dDmax    Ef(eV) dHmax(eV)
   scf:    1    -1515.527366    -1515.515966    -1515.515966  0.001828 -3.065748  0.010631
   scf:    2    -1515.515913    -1515.515953    -1515.515953  0.000443 -3.066153  0.020414
   scf:    3    -1515.515976    -1515.515971    -1515.515971  0.000295 -3.066137  0.000560
   scf:    4    -1515.515971    -1515.515971    -1515.515971  0.000012 -3.066188  0.000262

SCF Convergence by DM+H criterion
max |DM_out - DM_in|         :     0.0000122229
max |H_out - H_in|      (eV) :     0.0002617309
SCF cycle converged after 4 iterations

Using DM_out to compute the final energy and forces
No. of atoms with KB's overlaping orbs in proc 0. Max # of overlaps:      13     118

siesta: E_KS(eV) =            -1515.5160

siesta: Atomic forces (eV/Ang):
----------------------------------------
   Tot    0.046005   -0.023553   -0.000000
----------------------------------------
   Max    1.709093
   Res    0.551861    sqrt( Sum f_i^2 / 3N )
----------------------------------------
   Max    1.709093    constrained

Stress-tensor-Voigt (kbar):       -1.18       -1.04        0.00       -0.25       -0.00       -0.00
(Free)E + p*V (eV/cell)    -1511.8239
Target enthalpy (eV/cell)    -1515.5160

                     ====================================
                        Begin FIRE opt. move =      3
                     ====================================

outcoor: Atomic coordinates (Ang):                          
    2.19018980    1.11921462    0.00000000   1       1  C.gga
    3.40820946    1.80554847    0.00000000   1       2  C.gga
    3.42533277    3.20394310    0.00000000   1       3  C.gga
    2.22120546    3.92106694   -0.00000000   1       4  C.gga
    1.00019657    3.22921971    0.00000000   1       5  C.gga
    0.98690645    1.83123387   -0.00000000   1       6  C.gga
    1.43666095    5.79433003   -0.00000000   2       7  H.gga
    2.17865715    0.03608708    0.00000000   2       8  H.gga
    4.34057117    1.25312766    0.00000000   2       9  H.gga
    4.37189161    3.73113801   -0.00000000   2      10  H.gga
    0.06357442    3.77488796   -0.00000000   2      11  H.gga
    0.04312250    1.29880458    0.00000000   2      12  H.gga
    2.25161504    5.27074434    0.00000000   3      13  O.gga

outcell: Unit cell vectors (Ang):
       20.000000    0.000000    0.000000
        0.000000   20.000000    0.000000
        0.000000    0.000000   20.000000

outcell: Cell vector modules (Ang)   :   20.000000   20.000000   20.000000
outcell: Cell angles (23,13,12) (deg):     90.0000     90.0000     90.0000
outcell: Cell volume (Ang**3)        :   8000.0000
<dSpData1D:S at geom step 3
  <sparsity:sparsity for geom step 3
    nrows_g=121 nrows=121 sparsity=.9985 nnzs=14619, refcount: 7>
  <dData1D:(new from dSpData1D) n=14619, refcount: 1>
refcount: 1>
new_DM -- step:     4
Re-using DM from previous geometries...
Number of DMs in history: 1
 DM extrapolation coefficients: 
1   1.00000
New DM after history re-use:
<dSpData2D:SpM extrapolated using coords
  <sparsity:sparsity for geom step 3
    nrows_g=121 nrows=121 sparsity=.9985 nnzs=14619, refcount: 8>
  <dData2D:(temp array for extrapolation) n=14619 m=1, refcount: 1>
refcount: 1>
No. of atoms with KB's overlaping orbs in proc 0. Max # of overlaps:      13     118
New grid distribution:   1
           1       1:  108    1:  108    1:  108

InitMesh: MESH =   216 x   216 x   216 =    10077696
InitMesh: (bp) =   108 x   108 x   108 =     1259712
InitMesh: Mesh cutoff (required, used) =   300.000   322.366 Ry
ExtMesh (bp) on 0 =   188 x   188 x   188 =     6644672
PhiOnMesh: Number of (b)points on node 0 =              1259712
PhiOnMesh: nlist on node 0 =              2631494

        iscf     Eharris(eV)        E_KS(eV)     FreeEng(eV)     dDmax    Ef(eV) dHmax(eV)
   scf:    1    -1515.540973    -1515.522076    -1515.522076  0.003026 -3.058444  0.017677
   scf:    2    -1515.521933    -1515.522041    -1515.522041  0.000736 -3.059187  0.033745
   scf:    3    -1515.522104    -1515.522089    -1515.522089  0.000490 -3.059123  0.000933
   scf:    4    -1515.522089    -1515.522089    -1515.522089  0.000020 -3.059208  0.000432

SCF Convergence by DM+H criterion
max |DM_out - DM_in|         :     0.0000203994
max |H_out - H_in|      (eV) :     0.0004324179
SCF cycle converged after 4 iterations

Using DM_out to compute the final energy and forces
No. of atoms with KB's overlaping orbs in proc 0. Max # of overlaps:      13     118

siesta: E_KS(eV) =            -1515.5221

siesta: Atomic forces (eV/Ang):
----------------------------------------
   Tot    0.045463   -0.022660   -0.000000
----------------------------------------
   Max    1.672826
   Res    0.535619    sqrt( Sum f_i^2 / 3N )
----------------------------------------
   Max    1.672826    constrained

Stress-tensor-Voigt (kbar):       -1.17       -1.03        0.00       -0.26       -0.00       -0.00
(Free)E + p*V (eV/cell)    -1511.8723
Target enthalpy (eV/cell)    -1515.5221

                     ====================================
                        Begin FIRE opt. move =      4
                     ====================================

outcoor: Atomic coordinates (Ang):                          
    2.19019502    1.11922643    0.00000000   1       1  C.gga
    3.40784904    1.80576683    0.00000000   1       2  C.gga
    3.42544689    3.20388326    0.00000000   1       3  C.gga
    2.22034981    3.92099523   -0.00000000   1       4  C.gga
    1.00030429    3.22885076    0.00000000   1       5  C.gga
    0.98715893    1.83141139   -0.00000000   1       6  C.gga
    1.43623898    5.79382170   -0.00000000   2       7  H.gga
    2.17864721    0.03545142    0.00000000   2       8  H.gga
    4.34113285    1.25284219    0.00000000   2       9  H.gga
    4.37239512    3.73152397   -0.00000000   2      10  H.gga
    0.06303888    3.77527120   -0.00000000   2      11  H.gga
    0.04255515    1.29850857    0.00000000   2      12  H.gga
    2.25285465    5.27177580    0.00000000   3      13  O.gga

outcell: Unit cell vectors (Ang):
       20.000000    0.000000    0.000000
        0.000000   20.000000    0.000000
        0.000000    0.000000   20.000000

outcell: Cell vector modules (Ang)   :   20.000000   20.000000   20.000000
outcell: Cell angles (23,13,12) (deg):     90.0000     90.0000     90.0000
outcell: Cell volume (Ang**3)        :   8000.0000
<dSpData1D:S at geom step 4
  <sparsity:sparsity for geom step 4
    nrows_g=121 nrows=121 sparsity=.9985 nnzs=14619, refcount: 7>
  <dData1D:(new from dSpData1D) n=14619, refcount: 1>
refcount: 1>
new_DM -- step:     5
Re-using DM from previous geometries...
Number of DMs in history: 1
 DM extrapolation coefficients: 
1   1.00000
New DM after history re-use:
<dSpData2D:SpM extrapolated using coords
  <sparsity:sparsity for geom step 4
    nrows_g=121 nrows=121 sparsity=.9985 nnzs=14619, refcount: 8>
  <dData2D:(temp array for extrapolation) n=14619 m=1, refcount: 1>
refcount: 1>
No. of atoms with KB's overlaping orbs in proc 0. Max # of overlaps:      13     118
New grid distribution:   1
           1       1:  108    1:  108    1:  108

InitMesh: MESH =   216 x   216 x   216 =    10077696
InitMesh: (bp) =   108 x   108 x   108 =     1259712
InitMesh: Mesh cutoff (required, used) =   300.000   322.366 Ry
ExtMesh (bp) on 0 =   188 x   188 x   188 =     6644672
PhiOnMesh: Number of (b)points on node 0 =              1259712
PhiOnMesh: nlist on node 0 =              2631486

        iscf     Eharris(eV)        E_KS(eV)     FreeEng(eV)     dDmax    Ef(eV) dHmax(eV)
   scf:    1    -1515.556475    -1515.530251    -1515.530251  0.004181 -3.048532  0.024301
   scf:    2    -1515.529978    -1515.530183    -1515.530183  0.001022 -3.049471  0.046340
   scf:    3    -1515.530304    -1515.530275    -1515.530275  0.000681 -3.049444  0.001296
   scf:    4    -1515.530276    -1515.530275    -1515.530275  0.000028 -3.049562  0.000593

SCF Convergence by DM+H criterion
max |DM_out - DM_in|         :     0.0000283271
max |H_out - H_in|      (eV) :     0.0005928683
SCF cycle converged after 4 iterations

Using DM_out to compute the final energy and forces
No. of atoms with KB's overlaping orbs in proc 0. Max # of overlaps:      13     118

siesta: E_KS(eV) =            -1515.5303

siesta: Atomic forces (eV/Ang):
----------------------------------------
   Tot    0.044098   -0.020449   -0.000000
----------------------------------------
   Max    1.622040
   Res    0.513755    sqrt( Sum f_i^2 / 3N )
----------------------------------------
   Max    1.622040    constrained

Stress-tensor-Voigt (kbar):       -1.15       -1.01        0.00       -0.26        0.00       -0.00
(Free)E + p*V (eV/cell)    -1511.9410
Target enthalpy (eV/cell)    -1515.5303

                     ====================================
                        Begin FIRE opt. move =      5
                     ====================================

outcoor: Atomic coordinates (Ang):                          
    2.19019814    1.11923055    0.00000000   1       1  C.gga
    3.40740545    1.80603856    0.00000000   1       2  C.gga
    3.42558658    3.20381793    0.00000000   1       3  C.gga
    2.21927799    3.92091572   -0.00000000   1       4  C.gga
    1.00042167    3.22839488    0.00000000   1       5  C.gga
    0.98746982    1.83162142   -0.00000000   1       6  C.gga
    1.43570387    5.79316340   -0.00000000   2       7  H.gga
    2.17863451    0.03464019    0.00000000   2       8  H.gga
    4.34184495    1.25248114    0.00000000   2       9  H.gga
    4.37303794    3.73201849   -0.00000000   2      10  H.gga
    0.06235806    3.77575813   -0.00000000   2      11  H.gga
    0.04183458    1.29813338    0.00000000   2      12  H.gga
    2.25443602    5.27309308    0.00000000   3      13  O.gga

outcell: Unit cell vectors (Ang):
       20.000000    0.000000    0.000000
        0.000000   20.000000    0.000000
        0.000000    0.000000   20.000000

outcell: Cell vector modules (Ang)   :   20.000000   20.000000   20.000000
outcell: Cell angles (23,13,12) (deg):     90.0000     90.0000     90.0000
outcell: Cell volume (Ang**3)        :   8000.0000
<dSpData1D:S at geom step 5
  <sparsity:sparsity for geom step 5
    nrows_g=121 nrows=121 sparsity=.9985 nnzs=14619, refcount: 7>
  <dData1D:(new from dSpData1D) n=14619, refcount: 1>
refcount: 1>
new_DM -- step:     6
Re-using DM from previous geometries...
Number of DMs in history: 1
 DM extrapolation coefficients: 
1   1.00000
New DM after history re-use:
<dSpData2D:SpM extrapolated using coords
  <sparsity:sparsity for geom step 5
    nrows_g=121 nrows=121 sparsity=.9985 nnzs=14619, refcount: 8>
  <dData2D:(temp array for extrapolation) n=14619 m=1, refcount: 1>
refcount: 1>
No. of atoms with KB's overlaping orbs in proc 0. Max # of overlaps:      13     118
New grid distribution:   1
           1       1:  108    1:  108    1:  108

InitMesh: MESH =   216 x   216 x   216 =    10077696
InitMesh: (bp) =   108 x   108 x   108 =     1259712
InitMesh: Mesh cutoff (required, used) =   300.000   322.366 Ry
ExtMesh (bp) on 0 =   188 x   188 x   188 =     6644672
PhiOnMesh: Number of (b)points on node 0 =              1259712
PhiOnMesh: nlist on node 0 =              2631411

        iscf     Eharris(eV)        E_KS(eV)     FreeEng(eV)     dDmax    Ef(eV) dHmax(eV)
   scf:    1    -1515.573444    -1515.540131    -1515.540131  0.005286 -3.036134  0.030400
   scf:    2    -1515.539698    -1515.540023    -1515.540023  0.001290 -3.037228  0.057852
   scf:    3    -1515.540215    -1515.540170    -1515.540170  0.000861 -3.037257  0.001646
   scf:    4    -1515.540170    -1515.540170    -1515.540170  0.000036 -3.037406  0.000744

SCF Convergence by DM+H criterion
max |DM_out - DM_in|         :     0.0000360308
max |H_out - H_in|      (eV) :     0.0007439085
SCF cycle converged after 4 iterations

Using DM_out to compute the final energy and forces
No. of atoms with KB's overlaping orbs in proc 0. Max # of overlaps:      13     118

siesta: E_KS(eV) =            -1515.5402

siesta: Atomic forces (eV/Ang):
----------------------------------------
   Tot    0.043402   -0.019887   -0.000000
----------------------------------------
   Max    1.557182
   Res    0.487170    sqrt( Sum f_i^2 / 3N )
----------------------------------------
   Max    1.557182    constrained

Stress-tensor-Voigt (kbar):       -1.12       -0.99        0.00       -0.27        0.00       -0.00
(Free)E + p*V (eV/cell)    -1512.0276
Target enthalpy (eV/cell)    -1515.5402

                     ====================================
                        Begin FIRE opt. move =      6
                     ====================================

outcoor: Atomic coordinates (Ang):                          
    2.19019611    1.11921729    0.00000000   1       1  C.gga
    3.40689565    1.80635598   -0.00000000   1       2  C.gga
    3.42574600    3.20375710    0.00000000   1       3  C.gga
    2.21801425    3.92083955   -0.00000000   1       4  C.gga
    1.00053038    3.22786788    0.00000000   1       5  C.gga
    0.98782735    1.83184826   -0.00000000   1       6  C.gga
    1.43506187    5.79235038   -0.00000000   2       7  H.gga
    2.17861913    0.03365796    0.00000000   2       8  H.gga
    4.34269926    1.25204945    0.00000000   2       9  H.gga
    4.37381651    3.73262041   -0.00000000   2      10  H.gga
    0.06153806    3.77634412   -0.00000000   2      11  H.gga
    0.04096796    1.29768338    0.00000000   2      12  H.gga
    2.25634913    5.27468917    0.00000000   3      13  O.gga

outcell: Unit cell vectors (Ang):
       20.000000    0.000000    0.000000
        0.000000   20.000000    0.000000
        0.000000    0.000000   20.000000

outcell: Cell vector modules (Ang)   :   20.000000   20.000000   20.000000
outcell: Cell angles (23,13,12) (deg):     90.0000     90.0000     90.0000
outcell: Cell volume (Ang**3)        :   8000.0000
<dSpData1D:S at geom step 6
  <sparsity:sparsity for geom step 6
    nrows_g=121 nrows=121 sparsity=.9985 nnzs=14619, refcount: 7>
  <dData1D:(new from dSpData1D) n=14619, refcount: 1>
refcount: 1>
new_DM -- step:     7
Re-using DM from previous geometries...
Number of DMs in history: 1
 DM extrapolation coefficients: 
1   1.00000
New DM after history re-use:
<dSpData2D:SpM extrapolated using coords
  <sparsity:sparsity for geom step 6
    nrows_g=121 nrows=121 sparsity=.9985 nnzs=14619, refcount: 8>
  <dData2D:(temp array for extrapolation) n=14619 m=1, refcount: 1>
refcount: 1>
No. of atoms with KB's overlaping orbs in proc 0. Max # of overlaps:      13     118
New grid distribution:   1
           1       1:  108    1:  108    1:  108

InitMesh: MESH =   216 x   216 x   216 =    10077696
InitMesh: (bp) =   108 x   108 x   108 =     1259712
InitMesh: Mesh cutoff (required, used) =   300.000   322.366 Ry
ExtMesh (bp) on 0 =   188 x   188 x   188 =     6644672
PhiOnMesh: Number of (b)points on node 0 =              1259712
PhiOnMesh: nlist on node 0 =              2631417

        iscf     Eharris(eV)        E_KS(eV)     FreeEng(eV)     dDmax    Ef(eV) dHmax(eV)
   scf:    1    -1515.591400    -1515.551300    -1515.551300  0.006327 -3.021474  0.035786
   scf:    2    -1515.550690    -1515.551148    -1515.551148  0.001532 -3.022708  0.067910
   scf:    3    -1515.551418    -1515.551354    -1515.551354  0.001023 -3.022790  0.001977
   scf:    4    -1515.551355    -1515.551354    -1515.551354  0.000043 -3.022968  0.000882

SCF Convergence by DM+H criterion
max |DM_out - DM_in|         :     0.0000433797
max |H_out - H_in|      (eV) :     0.0008818292
SCF cycle converged after 4 iterations

Using DM_out to compute the final energy and forces
No. of atoms with KB's overlaping orbs in proc 0. Max # of overlaps:      13     118

siesta: E_KS(eV) =            -1515.5514

siesta: Atomic forces (eV/Ang):
----------------------------------------
   Tot    0.041046   -0.015689    0.000000
----------------------------------------
   Max    1.478090
   Res    0.457282    sqrt( Sum f_i^2 / 3N )
----------------------------------------
   Max    1.478090    constrained

Stress-tensor-Voigt (kbar):       -1.09       -0.97        0.00       -0.28       -0.00       -0.00
(Free)E + p*V (eV/cell)    -1512.1317
Target enthalpy (eV/cell)    -1515.5514

                     ====================================
                        Begin FIRE opt. move =      7
                     ====================================

outcoor: Atomic coordinates (Ang):                          
    2.19018514    1.11917399    0.00000000   1       1  C.gga
    3.40634136    1.80670948   -0.00000000   1       2  C.gga
    3.42591789    3.20371369    0.00000000   1       3  C.gga
    2.21658974    3.92078160   -0.00000000   1       4  C.gga
    1.00060685    3.22729012    0.00000000   1       5  C.gga
    0.98821614    1.83207158   -0.00000000   1       6  C.gga
    1.43432119    5.79137613   -0.00000000   2       7  H.gga
    2.17860115    0.03251034    0.00000000   2       8  H.gga
    4.34368549    1.25155336    0.00000000   2       9  H.gga
    4.37472633    3.73332846   -0.00000000   2      10  H.gga
    0.06058629    3.77702344   -0.00000000   2      11  H.gga
    0.03996419    1.29716403    0.00000000   2      12  H.gga
    2.25858093    5.27655568    0.00000000   3      13  O.gga

outcell: Unit cell vectors (Ang):
       20.000000    0.000000    0.000000
        0.000000   20.000000    0.000000
        0.000000    0.000000   20.000000

outcell: Cell vector modules (Ang)   :   20.000000   20.000000   20.000000
outcell: Cell angles (23,13,12) (deg):     90.0000     90.0000     90.0000
outcell: Cell volume (Ang**3)        :   8000.0000
<dSpData1D:S at geom step 7
  <sparsity:sparsity for geom step 7
    nrows_g=121 nrows=121 sparsity=.9985 nnzs=14619, refcount: 7>
  <dData1D:(new from dSpData1D) n=14619, refcount: 1>
refcount: 1>
new_DM -- step:     8
Re-using DM from previous geometries...
Number of DMs in history: 1
 DM extrapolation coefficients: 
1   1.00000
New DM after history re-use:
<dSpData2D:SpM extrapolated using coords
  <sparsity:sparsity for geom step 7
    nrows_g=121 nrows=121 sparsity=.9985 nnzs=14619, refcount: 8>
  <dData2D:(temp array for extrapolation) n=14619 m=1, refcount: 1>
refcount: 1>
No. of atoms with KB's overlaping orbs in proc 0. Max # of overlaps:      13     118
New grid distribution:   1
           1       1:  108    1:  108    1:  108

InitMesh: MESH =   216 x   216 x   216 =    10077696
InitMesh: (bp) =   108 x   108 x   108 =     1259712
InitMesh: Mesh cutoff (required, used) =   300.000   322.366 Ry
ExtMesh (bp) on 0 =   188 x   188 x   188 =     6644672
PhiOnMesh: Number of (b)points on node 0 =              1259712
PhiOnMesh: nlist on node 0 =              2631405

        iscf     Eharris(eV)        E_KS(eV)     FreeEng(eV)     dDmax    Ef(eV) dHmax(eV)
   scf:    1    -1515.609839    -1515.563314    -1515.563314  0.007273 -3.004848  0.040263
   scf:    2    -1515.562525    -1515.563117    -1515.563117  0.001742 -3.006245  0.076119
   scf:    3    -1515.563465    -1515.563383    -1515.563383  0.001159 -3.006351  0.002284
   scf:    4    -1515.563384    -1515.563384    -1515.563384  0.000050 -3.006554  0.001003
   scf:    5    -1515.563384    -1515.563384    -1515.563384  0.000043 -3.006577  0.000557

SCF Convergence by DM+H criterion
max |DM_out - DM_in|         :     0.0000425045
max |H_out - H_in|      (eV) :     0.0005567361
SCF cycle converged after 5 iterations

Using DM_out to compute the final energy and forces
No. of atoms with KB's overlaping orbs in proc 0. Max # of overlaps:      13     118

siesta: E_KS(eV) =            -1515.5634

siesta: Atomic forces (eV/Ang):
----------------------------------------
   Tot    0.037539   -0.011817   -0.000000
----------------------------------------
   Max    1.384935
   Res    0.425328    sqrt( Sum f_i^2 / 3N )
----------------------------------------
   Max    1.384935    constrained

Stress-tensor-Voigt (kbar):       -1.06       -0.94        0.00       -0.28       -0.00       -0.00
(Free)E + p*V (eV/cell)    -1512.2526
Target enthalpy (eV/cell)    -1515.5634

                     ====================================
                        Begin FIRE opt. move =      8
                     ====================================

outcoor: Atomic coordinates (Ang):                          
    2.19015800    1.11907459    0.00000000   1       1  C.gga
    3.40570971    1.80712660   -0.00000000   1       2  C.gga
    3.42611190    3.20370337    0.00000000   1       3  C.gga
    2.21488054    3.92075974   -0.00000000   1       4  C.gga
    1.00062229    3.22662383    0.00000000   1       5  C.gga
    0.98865871    1.83228609   -0.00000000   1       6  C.gga
    1.43340457    5.79011000   -0.00000000   2       7  H.gga
    2.17857849    0.03106519    0.00000000   2       8  H.gga
    4.34490825    1.25094205    0.00000000   2       9  H.gga
    4.37587175    3.73422760   -0.00000000   2      10  H.gga
    0.05939738    3.77787040   -0.00000000   2      11  H.gga
    0.03871422    1.29652027    0.00000000   2      12  H.gga
    2.26138348    5.27890799    0.00000000   3      13  O.gga

outcell: Unit cell vectors (Ang):
       20.000000    0.000000    0.000000
        0.000000   20.000000    0.000000
        0.000000    0.000000   20.000000

outcell: Cell vector modules (Ang)   :   20.000000   20.000000   20.000000
outcell: Cell angles (23,13,12) (deg):     90.0000     90.0000     90.0000
outcell: Cell volume (Ang**3)        :   8000.0000
<dSpData1D:S at geom step 8
  <sparsity:sparsity for geom step 8
    nrows_g=121 nrows=121 sparsity=.9985 nnzs=14619, refcount: 7>
  <dData1D:(new from dSpData1D) n=14619, refcount: 1>
refcount: 1>
new_DM -- step:     9
Re-using DM from previous geometries...
Number of DMs in history: 1
 DM extrapolation coefficients: 
1   1.00000
New DM after history re-use:
<dSpData2D:SpM extrapolated using coords
  <sparsity:sparsity for geom step 8
    nrows_g=121 nrows=121 sparsity=.9985 nnzs=14619, refcount: 8>
  <dData2D:(temp array for extrapolation) n=14619 m=1, refcount: 1>
refcount: 1>
No. of atoms with KB's overlaping orbs in proc 0. Max # of overlaps:      13     118
New grid distribution:   1
           1       1:  108    1:  108    1:  108

InitMesh: MESH =   216 x   216 x   216 =    10077696
InitMesh: (bp) =   108 x   108 x   108 =     1259712
InitMesh: Mesh cutoff (required, used) =   300.000   322.366 Ry
ExtMesh (bp) on 0 =   188 x   188 x   188 =     6644672
PhiOnMesh: Number of (b)points on node 0 =              1259712
PhiOnMesh: nlist on node 0 =              2631355

        iscf     Eharris(eV)        E_KS(eV)     FreeEng(eV)     dDmax    Ef(eV) dHmax(eV)
   scf:    1    -1515.635036    -1515.576975    -1515.576975  0.009031 -2.984406  0.048390
   scf:    2    -1515.575825    -1515.576688    -1515.576688  0.002194 -2.986690  0.090545
   scf:    3    -1515.577197    -1515.577077    -1515.577077  0.001379 -2.986449  0.002802
   scf:    4    -1515.577078    -1515.577077    -1515.577077  0.000063 -2.986691  0.001252
   scf:    5    -1515.577078    -1515.577078    -1515.577078  0.000054 -2.986710  0.000701

SCF Convergence by DM+H criterion
max |DM_out - DM_in|         :     0.0000537544
max |H_out - H_in|      (eV) :     0.0007012742
SCF cycle converged after 5 iterations

Using DM_out to compute the final energy and forces
No. of atoms with KB's overlaping orbs in proc 0. Max # of overlaps:      13     118

siesta: E_KS(eV) =            -1515.5771

siesta: Atomic forces (eV/Ang):
----------------------------------------
   Tot    0.032412   -0.008210   -0.000000
----------------------------------------
   Max    1.268310
   Res    0.390242    sqrt( Sum f_i^2 / 3N )
----------------------------------------
   Max    1.268310    constrained

Stress-tensor-Voigt (kbar):       -1.01       -0.90        0.00       -0.29       -0.00       -0.00
(Free)E + p*V (eV/cell)    -1512.4053
Target enthalpy (eV/cell)    -1515.5771

                     ====================================
                        Begin FIRE opt. move =      9
                     ====================================

outcoor: Atomic coordinates (Ang):                          
    2.19010402    1.11887881    0.00000000   1       1  C.gga
    3.40502945    1.80760069   -0.00000000   1       2  C.gga
    3.42631882    3.20376115    0.00000000   1       3  C.gga
    2.21289108    3.92081623   -0.00000000   1       4  C.gga
    1.00051330    3.22589302    0.00000000   1       5  C.gga
    0.98913321    1.83244719   -0.00000000   1       6  C.gga
    1.43229185    5.78847122   -0.00000000   2       7  H.gga
    2.17855030    0.02926722    0.00000000   2       8  H.gga
    4.34639890    1.25020310    0.00000000   2       9  H.gga
    4.37729511    3.73535802   -0.00000000   2      10  H.gga
    0.05793249    3.77891090   -0.00000000   2      11  H.gga
    0.03718138    1.29573550    0.00000000   2      12  H.gga
    2.26485325    5.28183597    0.00000000   3      13  O.gga

outcell: Unit cell vectors (Ang):
       20.000000    0.000000    0.000000
        0.000000   20.000000    0.000000
        0.000000    0.000000   20.000000

outcell: Cell vector modules (Ang)   :   20.000000   20.000000   20.000000
outcell: Cell angles (23,13,12) (deg):     90.0000     90.0000     90.0000
outcell: Cell volume (Ang**3)        :   8000.0000
<dSpData1D:S at geom step 9
  <sparsity:sparsity for geom step 9
    nrows_g=121 nrows=121 sparsity=.9985 nnzs=14619, refcount: 7>
  <dData1D:(new from dSpData1D) n=14619, refcount: 1>
refcount: 1>
new_DM -- step:    10
Re-using DM from previous geometries...
Number of DMs in history: 1
 DM extrapolation coefficients: 
1   1.00000
New DM after history re-use:
<dSpData2D:SpM extrapolated using coords
  <sparsity:sparsity for geom step 9
    nrows_g=121 nrows=121 sparsity=.9985 nnzs=14619, refcount: 8>
  <dData2D:(temp array for extrapolation) n=14619 m=1, refcount: 1>
refcount: 1>
No. of atoms with KB's overlaping orbs in proc 0. Max # of overlaps:      13     118
New grid distribution:   1
           1       1:  108    1:  108    1:  108

InitMesh: MESH =   216 x   216 x   216 =    10077696
InitMesh: (bp) =   108 x   108 x   108 =     1259712
InitMesh: Mesh cutoff (required, used) =   300.000   322.366 Ry
ExtMesh (bp) on 0 =   188 x   188 x   188 =     6644672
PhiOnMesh: Number of (b)points on node 0 =              1259712
PhiOnMesh: nlist on node 0 =              2631308

        iscf     Eharris(eV)        E_KS(eV)     FreeEng(eV)     dDmax    Ef(eV) dHmax(eV)
   scf:    1    -1515.663398    -1515.591978    -1515.591978  0.010944 -2.960463  0.056240
   scf:    2    -1515.590368    -1515.591576    -1515.591576  0.002656 -2.963454  0.104445
   scf:    3    -1515.592286    -1515.592119    -1515.592119  0.001619 -2.962993  0.003414
   scf:    4    -1515.592120    -1515.592120    -1515.592120  0.000077 -2.963286  0.001504
   scf:    5    -1515.592120    -1515.592120    -1515.592120  0.000066 -2.963312  0.000844

SCF Convergence by DM+H criterion
max |DM_out - DM_in|         :     0.0000659292
max |H_out - H_in|      (eV) :     0.0008437416
SCF cycle converged after 5 iterations

Using DM_out to compute the final energy and forces
No. of atoms with KB's overlaping orbs in proc 0. Max # of overlaps:      13     118

siesta: E_KS(eV) =            -1515.5921

siesta: Atomic forces (eV/Ang):
----------------------------------------
   Tot    0.023771   -0.000383    0.000000
----------------------------------------
   Max    1.124942
   Res    0.354631    sqrt( Sum f_i^2 / 3N )
----------------------------------------
   Max    1.124942    constrained

Stress-tensor-Voigt (kbar):       -0.95       -0.85        0.00       -0.29        0.00        0.00
(Free)E + p*V (eV/cell)    -1512.5951
Target enthalpy (eV/cell)    -1515.5921

                     ====================================
                        Begin FIRE opt. move =     10
                     ====================================

outcoor: Atomic coordinates (Ang):                          
    2.19000849    1.11852466    0.00000000   1       1  C.gga
    3.40435849    1.80811272   -0.00000000   1       2  C.gga
    3.42652193    3.20394227    0.00000000   1       3  C.gga
    2.21066483    3.92102107   -0.00000000   1       4  C.gga
    1.00018094    3.22514980    0.00000000   1       5  C.gga
    0.98959446    1.83248118   -0.00000000   1       6  C.gga
    1.43097258    5.78635716   -0.00000000   2       7  H.gga
    2.17851565    0.02705900    0.00000000   2       8  H.gga
    4.34818171    1.24932989    0.00000000   2       9  H.gga
    4.37903790    3.73676429   -0.00000000   2      10  H.gga
    0.05615336    3.78016877   -0.00000000   2      11  H.gga
    0.03533338    1.29479652    0.00000000   2      12  H.gga
    2.26908002    5.28543184    0.00000000   3      13  O.gga

outcell: Unit cell vectors (Ang):
       20.000000    0.000000    0.000000
        0.000000   20.000000    0.000000
        0.000000    0.000000   20.000000

outcell: Cell vector modules (Ang)   :   20.000000   20.000000   20.000000
outcell: Cell angles (23,13,12) (deg):     90.0000     90.0000     90.0000
outcell: Cell volume (Ang**3)        :   8000.0000
<dSpData1D:S at geom step 10
  <sparsity:sparsity for geom step 10
    nrows_g=121 nrows=121 sparsity=.9981 nnzs=14613, refcount: 7>
  <dData1D:(new from dSpData1D) n=14613, refcount: 1>
refcount: 1>
new_DM -- step:    11
Re-using DM from previous geometries...
Number of DMs in history: 1
 DM extrapolation coefficients: 
1   1.00000
New DM after history re-use:
<dSpData2D:SpM extrapolated using coords
  <sparsity:sparsity for geom step 10
    nrows_g=121 nrows=121 sparsity=.9981 nnzs=14613, refcount: 8>
  <dData2D:(temp array for extrapolation) n=14613 m=1, refcount: 1>
refcount: 1>
No. of atoms with KB's overlaping orbs in proc 0. Max # of overlaps:      13     118
New grid distribution:   1
           1       1:  108    1:  108    1:  108

InitMesh: MESH =   216 x   216 x   216 =    10077696
InitMesh: (bp) =   108 x   108 x   108 =     1259712
InitMesh: Mesh cutoff (required, used) =   300.000   322.366 Ry
ExtMesh (bp) on 0 =   188 x   188 x   188 =     6644672
PhiOnMesh: Number of (b)points on node 0 =              1259712
PhiOnMesh: nlist on node 0 =              2631291

        iscf     Eharris(eV)        E_KS(eV)     FreeEng(eV)     dDmax    Ef(eV) dHmax(eV)
   scf:    1    -1515.694304    -1515.607850    -1515.607850  0.012965 -2.933228  0.062799
   scf:    2    -1515.605739    -1515.607321    -1515.607321  0.003140 -2.937426  0.116862
   scf:    3    -1515.608250    -1515.608032    -1515.608032  0.001918 -2.936404  0.004074
   scf:    4    -1515.608034    -1515.608033    -1515.608033  0.000092 -2.936753  0.001825
   scf:    5    -1515.608034    -1515.608034    -1515.608034  0.000079 -2.936793  0.000989

SCF Convergence by DM+H criterion
max |DM_out - DM_in|         :     0.0000794614
max |H_out - H_in|      (eV) :     0.0009887358
SCF cycle converged after 5 iterations

Using DM_out to compute the final energy and forces
No. of atoms with KB's overlaping orbs in proc 0. Max # of overlaps:      13     118

siesta: E_KS(eV) =            -1515.6080

siesta: Atomic forces (eV/Ang):
----------------------------------------
   Tot    0.013352    0.008075   -0.000000
----------------------------------------
   Max    0.952902
   Res    0.322394    sqrt( Sum f_i^2 / 3N )
----------------------------------------
   Max    0.952902    constrained

Stress-tensor-Voigt (kbar):       -0.88       -0.79        0.00       -0.30        0.00       -0.00
(Free)E + p*V (eV/cell)    -1512.8272
Target enthalpy (eV/cell)    -1515.6080

                     ====================================
                        Begin FIRE opt. move =     11
                     ====================================

outcoor: Atomic coordinates (Ang):                          
    2.18985385    1.11792236    0.00000000   1       1  C.gga
    3.40379440    1.80862540   -0.00000000   1       2  C.gga
    3.42669593    3.20432731    0.00000000   1       3  C.gga
    2.20830700    3.92148154   -0.00000000   1       4  C.gga
    0.99948315    3.22448569    0.00000000   1       5  C.gga
    0.98996309    1.83227810   -0.00000000   1       6  C.gga
    1.42945660    5.78364258   -0.00000000   2       7  H.gga
    2.17847379    0.02438798    0.00000000   2       8  H.gga
    4.35026513    1.24832688    0.00000000   2       9  H.gga
    4.38113234    3.73849140   -0.00000000   2      10  H.gga
    0.05402698    3.78166115   -0.00000000   2      11  H.gga
    0.03315001    1.29369754    0.00000000   2      12  H.gga
    2.27412468    5.28977693    0.00000000   3      13  O.gga

outcell: Unit cell vectors (Ang):
       20.000000    0.000000    0.000000
        0.000000   20.000000    0.000000
        0.000000    0.000000   20.000000

outcell: Cell vector modules (Ang)   :   20.000000   20.000000   20.000000
outcell: Cell angles (23,13,12) (deg):     90.0000     90.0000     90.0000
outcell: Cell volume (Ang**3)        :   8000.0000
<dSpData1D:S at geom step 11
  <sparsity:sparsity for geom step 11
    nrows_g=121 nrows=121 sparsity=.9981 nnzs=14613, refcount: 7>
  <dData1D:(new from dSpData1D) n=14613, refcount: 1>
refcount: 1>
new_DM -- step:    12
Re-using DM from previous geometries...
Number of DMs in history: 1
 DM extrapolation coefficients: 
1   1.00000
New DM after history re-use:
<dSpData2D:SpM extrapolated using coords
  <sparsity:sparsity for geom step 11
    nrows_g=121 nrows=121 sparsity=.9981 nnzs=14613, refcount: 8>
  <dData2D:(temp array for extrapolation) n=14613 m=1, refcount: 1>
refcount: 1>
No. of atoms with KB's overlaping orbs in proc 0. Max # of overlaps:      13     118
New grid distribution:   1
           1       1:  108    1:  108    1:  108

InitMesh: MESH =   216 x   216 x   216 =    10077696
InitMesh: (bp) =   108 x   108 x   108 =     1259712
InitMesh: Mesh cutoff (required, used) =   300.000   322.366 Ry
ExtMesh (bp) on 0 =   188 x   188 x   188 =     6644672
PhiOnMesh: Number of (b)points on node 0 =              1259712
PhiOnMesh: nlist on node 0 =              2631340

        iscf     Eharris(eV)        E_KS(eV)     FreeEng(eV)     dDmax    Ef(eV) dHmax(eV)
   scf:    1    -1515.726722    -1515.624086    -1515.624086  0.014949 -2.903738  0.066290
   scf:    2    -1515.621541    -1515.623445    -1515.623445  0.003599 -2.910157  0.127740
   scf:    3    -1515.624561    -1515.624301    -1515.624301  0.002207 -2.907849  0.004742
   scf:    4    -1515.624304    -1515.624303    -1515.624303  0.000106 -2.908258  0.002170
   scf:    5    -1515.624304    -1515.624303    -1515.624303  0.000094 -2.908324  0.001118
   scf:    6    -1515.624304    -1515.624303    -1515.624303  0.000042 -2.908245  0.000618

SCF Convergence by DM+H criterion
max |DM_out - DM_in|         :     0.0000419714
max |H_out - H_in|      (eV) :     0.0006176121
SCF cycle converged after 6 iterations

Using DM_out to compute the final energy and forces
No. of atoms with KB's overlaping orbs in proc 0. Max # of overlaps:      13     118

siesta: E_KS(eV) =            -1515.6243

siesta: Atomic forces (eV/Ang):
----------------------------------------
   Tot   -0.002790    0.016974   -0.000000
----------------------------------------
   Max    0.749413
   Res    0.297292    sqrt( Sum f_i^2 / 3N )
----------------------------------------
   Max    0.749413    constrained

Stress-tensor-Voigt (kbar):       -0.80       -0.71        0.00       -0.29       -0.00       -0.00
(Free)E + p*V (eV/cell)    -1513.1144
Target enthalpy (eV/cell)    -1515.6243

                     ====================================
                        Begin FIRE opt. move =     12
                     ====================================

outcoor: Atomic coordinates (Ang):                          
    2.18962410    1.11695322   -0.00000000   1       1  C.gga
    3.40347879    1.80907974    0.00000000   1       2  C.gga
    3.42680977    3.20502167   -0.00000000   1       3  C.gga
    2.20600262    3.92235001   -0.00000000   1       4  C.gga
    0.99823871    3.22403857   -0.00000000   1       5  C.gga
    0.99011734    1.83169375   -0.00000000   1       6  C.gga
    1.42778827    5.78018527   -0.00000000   2       7  H.gga
    2.17842439    0.02121719    0.00000000   2       8  H.gga
    4.35263148    1.24721612    0.00000000   2       9  H.gga
    4.38358797    3.74057745   -0.00000000   2      10  H.gga
    0.05153088    3.78339291    0.00000000   2      11  H.gga
    0.03063251    1.29244467    0.00000000   2      12  H.gga
    2.27998334    5.29491615    0.00000000   3      13  O.gga

outcell: Unit cell vectors (Ang):
       20.000000    0.000000    0.000000
        0.000000   20.000000    0.000000
        0.000000    0.000000   20.000000

outcell: Cell vector modules (Ang)   :   20.000000   20.000000   20.000000
outcell: Cell angles (23,13,12) (deg):     90.0000     90.0000     90.0000
outcell: Cell volume (Ang**3)        :   8000.0000
<dSpData1D:S at geom step 12
  <sparsity:sparsity for geom step 12
    nrows_g=121 nrows=121 sparsity=.9981 nnzs=14613, refcount: 7>
  <dData1D:(new from dSpData1D) n=14613, refcount: 1>
refcount: 1>
new_DM -- step:    13
Re-using DM from previous geometries...
Number of DMs in history: 1
 DM extrapolation coefficients: 
1   1.00000
New DM after history re-use:
<dSpData2D:SpM extrapolated using coords
  <sparsity:sparsity for geom step 12
    nrows_g=121 nrows=121 sparsity=.9981 nnzs=14613, refcount: 8>
  <dData2D:(temp array for extrapolation) n=14613 m=1, refcount: 1>
refcount: 1>
No. of atoms with KB's overlaping orbs in proc 0. Max # of overlaps:      13     118
New grid distribution:   1
           1       1:  108    1:  108    1:  108

InitMesh: MESH =   216 x   216 x   216 =    10077696
InitMesh: (bp) =   108 x   108 x   108 =     1259712
InitMesh: Mesh cutoff (required, used) =   300.000   322.366 Ry
ExtMesh (bp) on 0 =   188 x   188 x   188 =     6644672
PhiOnMesh: Number of (b)points on node 0 =              1259712
PhiOnMesh: nlist on node 0 =              2631234

        iscf     Eharris(eV)        E_KS(eV)     FreeEng(eV)     dDmax    Ef(eV) dHmax(eV)
   scf:    1    -1515.759044    -1515.640252    -1515.640252  0.016645 -2.874093  0.064209
   scf:    2    -1515.637513    -1515.639560    -1515.639560  0.003963 -2.884564  0.129637
   scf:    3    -1515.640759    -1515.640481    -1515.640481  0.002441 -2.879625  0.005343
   scf:    4    -1515.640484    -1515.640483    -1515.640483  0.000117 -2.880094  0.002514
   scf:    5    -1515.640484    -1515.640483    -1515.640483  0.000109 -2.880205  0.001213
   scf:    6    -1515.640484    -1515.640484    -1515.640484  0.000046 -2.880135  0.000647

SCF Convergence by DM+H criterion
max |DM_out - DM_in|         :     0.0000456114
max |H_out - H_in|      (eV) :     0.0006470660
SCF cycle converged after 6 iterations

Using DM_out to compute the final energy and forces
No. of atoms with KB's overlaping orbs in proc 0. Max # of overlaps:      13     118

siesta: E_KS(eV) =            -1515.6405

siesta: Atomic forces (eV/Ang):
----------------------------------------
   Tot   -0.020330    0.024403   -0.000000
----------------------------------------
   Max    0.697658
   Res    0.280818    sqrt( Sum f_i^2 / 3N )
----------------------------------------
   Max    0.697658    constrained

Stress-tensor-Voigt (kbar):       -0.70       -0.61        0.00       -0.28        0.00       -0.00
(Free)E + p*V (eV/cell)    -1513.4618
Target enthalpy (eV/cell)    -1515.6405

                     ====================================
                        Begin FIRE opt. move =     13
                     ====================================

outcoor: Atomic coordinates (Ang):                          
    2.18931392    1.11547953   -0.00000000   1       1  C.gga
    3.40358493    1.80939943    0.00000000   1       2  C.gga
    3.42683641    3.20614358   -0.00000000   1       3  C.gga
    2.20401645    3.92381568   -0.00000000   1       4  C.gga
    0.99625405    3.22398614   -0.00000000   1       5  C.gga
    0.98989447    1.83057077    0.00000000   1       6  C.gga
    1.42605829    5.77583827   -0.00000000   2       7  H.gga
    2.17836768    0.01753604   -0.00000000   2       8  H.gga
    4.35523020    1.24604141    0.00000000   2       9  H.gga
    4.38637626    3.74304470   -0.00000000   2      10  H.gga
    0.04865466    3.78535354   -0.00000000   2      11  H.gga
    0.02780944    1.29105748    0.00000000   2      12  H.gga
    2.28655467    5.30083149    0.00000000   3      13  O.gga

outcell: Unit cell vectors (Ang):
       20.000000    0.000000    0.000000
        0.000000   20.000000    0.000000
        0.000000    0.000000   20.000000

outcell: Cell vector modules (Ang)   :   20.000000   20.000000   20.000000
outcell: Cell angles (23,13,12) (deg):     90.0000     90.0000     90.0000
outcell: Cell volume (Ang**3)        :   8000.0000
<dSpData1D:S at geom step 13
  <sparsity:sparsity for geom step 13
    nrows_g=121 nrows=121 sparsity=.9981 nnzs=14613, refcount: 7>
  <dData1D:(new from dSpData1D) n=14613, refcount: 1>
refcount: 1>
new_DM -- step:    14
Re-using DM from previous geometries...
Number of DMs in history: 1
 DM extrapolation coefficients: 
1   1.00000
New DM after history re-use:
<dSpData2D:SpM extrapolated using coords
  <sparsity:sparsity for geom step 13
    nrows_g=121 nrows=121 sparsity=.9981 nnzs=14613, refcount: 8>
  <dData2D:(temp array for extrapolation) n=14613 m=1, refcount: 1>
refcount: 1>
No. of atoms with KB's overlaping orbs in proc 0. Max # of overlaps:      13     118
New grid distribution:   1
           1       1:  108    1:  108    1:  108

InitMesh: MESH =   216 x   216 x   216 =    10077696
InitMesh: (bp) =   108 x   108 x   108 =     1259712
InitMesh: Mesh cutoff (required, used) =   300.000   322.366 Ry
ExtMesh (bp) on 0 =   188 x   188 x   188 =     6644672
PhiOnMesh: Number of (b)points on node 0 =              1259712
PhiOnMesh: nlist on node 0 =              2631200

        iscf     Eharris(eV)        E_KS(eV)     FreeEng(eV)     dDmax    Ef(eV) dHmax(eV)
   scf:    1    -1515.789218    -1515.656120    -1515.656120  0.017666 -2.847317  0.058337
   scf:    2    -1515.653495    -1515.655458    -1515.655458  0.004137 -2.865213  0.116580
   scf:    3    -1515.656607    -1515.656340    -1515.656340  0.002568 -2.855207  0.005812
   scf:    4    -1515.656344    -1515.656342    -1515.656342  0.000121 -2.855750  0.002847
   scf:    5    -1515.656344    -1515.656343    -1515.656343  0.000123 -2.855966  0.001212
   scf:    6    -1515.656344    -1515.656343    -1515.656343  0.000050 -2.855923  0.000631

SCF Convergence by DM+H criterion
max |DM_out - DM_in|         :     0.0000498751
max |H_out - H_in|      (eV) :     0.0006306207
SCF cycle converged after 6 iterations

Using DM_out to compute the final energy and forces
No. of atoms with KB's overlaping orbs in proc 0. Max # of overlaps:      13     118

siesta: E_KS(eV) =            -1515.6563

siesta: Atomic forces (eV/Ang):
----------------------------------------
   Tot   -0.035458    0.028214    0.000000
----------------------------------------
   Max    0.670277
   Res    0.268358    sqrt( Sum f_i^2 / 3N )
----------------------------------------
   Max    0.670277    constrained

Stress-tensor-Voigt (kbar):       -0.59       -0.49        0.00       -0.26        0.00       -0.00
(Free)E + p*V (eV/cell)    -1513.8743
Target enthalpy (eV/cell)    -1515.6563

                     ====================================
                        Begin FIRE opt. move =     14
                     ====================================

outcoor: Atomic coordinates (Ang):                          
    2.18894194    1.11336237    0.00000000   1       1  C.gga
    3.40428899    1.80949979    0.00000000   1       2  C.gga
    3.42677000    3.20780598   -0.00000000   1       3  C.gga
    2.20266481    3.92609045   -0.00000000   1       4  C.gga
    0.99337016    3.22452376   -0.00000000   1       5  C.gga
    0.98910258    1.82877712    0.00000000   1       6  C.gga
    1.42440800    5.77045838   -0.00000000   2       7  H.gga
    2.17830503    0.01336029   -0.00000000   2       8  H.gga
    4.35798220    1.24486756    0.00000000   2       9  H.gga
    4.38942100    3.74589564   -0.00000000   2      10  H.gga
    0.04538967    3.78752203   -0.00000000   2      11  H.gga
    0.02473101    1.28956413    0.00000000   2      12  H.gga
    2.29362717    5.30742420    0.00000000   3      13  O.gga

outcell: Unit cell vectors (Ang):
       20.000000    0.000000    0.000000
        0.000000   20.000000    0.000000
        0.000000    0.000000   20.000000

outcell: Cell vector modules (Ang)   :   20.000000   20.000000   20.000000
outcell: Cell angles (23,13,12) (deg):     90.0000     90.0000     90.0000
outcell: Cell volume (Ang**3)        :   8000.0000
<dSpData1D:S at geom step 14
  <sparsity:sparsity for geom step 14
    nrows_g=121 nrows=121 sparsity=.9981 nnzs=14613, refcount: 7>
  <dData1D:(new from dSpData1D) n=14613, refcount: 1>
refcount: 1>
new_DM -- step:    15
Re-using DM from previous geometries...
Number of DMs in history: 1
 DM extrapolation coefficients: 
1   1.00000
New DM after history re-use:
<dSpData2D:SpM extrapolated using coords
  <sparsity:sparsity for geom step 14
    nrows_g=121 nrows=121 sparsity=.9981 nnzs=14613, refcount: 8>
  <dData2D:(temp array for extrapolation) n=14613 m=1, refcount: 1>
refcount: 1>
No. of atoms with KB's overlaping orbs in proc 0. Max # of overlaps:      13     118
New grid distribution:   1
           1       1:  108    1:  108    1:  108

InitMesh: MESH =   216 x   216 x   216 =    10077696
InitMesh: (bp) =   108 x   108 x   108 =     1259712
InitMesh: Mesh cutoff (required, used) =   300.000   322.366 Ry
ExtMesh (bp) on 0 =   188 x   188 x   188 =     6644672
PhiOnMesh: Number of (b)points on node 0 =              1259712
PhiOnMesh: nlist on node 0 =              2631015

[...]
    2.18511168    1.11147532    0.00000013   1       1  C.gga
    3.41064771    1.81342544    0.00000005   1       2  C.gga
    3.43686787    3.22152816   -0.00000001   1       3  C.gga
    2.21750488    3.94010821   -0.00000004   1       4  C.gga
    0.98530650    3.24579031   -0.00000000   1       5  C.gga
    0.97468702    1.83597470    0.00000006   1       6  C.gga
    1.37642988    5.66984081    0.00000003   2       7  H.gga
    2.17383579    0.00472368    0.00000004   2       8  H.gga
    4.36766930    1.25487154    0.00000001   2       9  H.gga
    4.39185741    3.78131025   -0.00000002   2      10  H.gga
    0.03323895    3.81598396   -0.00000001   2      11  H.gga
    0.00476568    1.30088629    0.00000002   2      12  H.gga
    2.28825335    5.31825368   -0.00000012   3      13  O.gga

outcell: Unit cell vectors (Ang):
       20.000000    0.000000    0.000000
        0.000000   20.000000    0.000000
        0.000000    0.000000   20.000000

outcell: Cell vector modules (Ang)   :   20.000000   20.000000   20.000000
outcell: Cell angles (23,13,12) (deg):     90.0000     90.0000     90.0000
outcell: Cell volume (Ang**3)        :   8000.0000
<dSpData1D:S at geom step 113
  <sparsity:sparsity for geom step 113
    nrows_g=121 nrows=121 sparsity=.9980 nnzs=14611, refcount: 7>
  <dData1D:(new from dSpData1D) n=14611, refcount: 1>
refcount: 1>
new_DM -- step:   114
Re-using DM from previous geometries...
Number of DMs in history: 1
 DM extrapolation coefficients: 
1   1.00000
New DM after history re-use:
<dSpData2D:SpM extrapolated using coords
  <sparsity:sparsity for geom step 113
    nrows_g=121 nrows=121 sparsity=.9980 nnzs=14611, refcount: 8>
  <dData2D:(temp array for extrapolation) n=14611 m=1, refcount: 1>
refcount: 1>
No. of atoms with KB's overlaping orbs in proc 0. Max # of overlaps:      13     117
New grid distribution:   1
           1       1:  108    1:  108    1:  108

InitMesh: MESH =   216 x   216 x   216 =    10077696
InitMesh: (bp) =   108 x   108 x   108 =     1259712
InitMesh: Mesh cutoff (required, used) =   300.000   322.366 Ry
ExtMesh (bp) on 0 =   188 x   188 x   188 =     6644672
PhiOnMesh: Number of (b)points on node 0 =              1259712
PhiOnMesh: nlist on node 0 =              2631314

        iscf     Eharris(eV)        E_KS(eV)     FreeEng(eV)     dDmax    Ef(eV) dHmax(eV)
   scf:    1    -1515.727549    -1515.727391    -1515.727391  0.000119 -3.092141  0.000977
   scf:    2    -1515.727390    -1515.727391    -1515.727391  0.000047 -3.092816  0.002124
   scf:    3    -1515.727391    -1515.727391    -1515.727391  0.000033 -3.092354  0.000183

SCF Convergence by DM+H criterion
max |DM_out - DM_in|         :     0.0000333746
max |H_out - H_in|      (eV) :     0.0001826487
SCF cycle converged after 3 iterations

Using DM_out to compute the final energy and forces
No. of atoms with KB's overlaping orbs in proc 0. Max # of overlaps:      13     117

siesta: E_KS(eV) =            -1515.7274

siesta: Atomic forces (eV/Ang):
----------------------------------------
   Tot   -0.042894    0.018584   -0.000000
----------------------------------------
   Max    0.012266
   Res    0.004451    sqrt( Sum f_i^2 / 3N )
----------------------------------------
   Max    0.012266    constrained

Stress-tensor-Voigt (kbar):        0.00        0.01        0.00       -0.01       -0.00        0.00
(Free)E + p*V (eV/cell)    -1515.7599
Target enthalpy (eV/cell)    -1515.7274

                     ====================================
                        Begin FIRE opt. move =    114
                     ====================================

outcoor: Atomic coordinates (Ang):                          
    2.18510651    1.11147848    0.00000012   1       1  C.gga
    3.41065132    1.81342838    0.00000005   1       2  C.gga
    3.43685794    3.22153435   -0.00000001   1       3  C.gga
    2.21750691    3.94010860   -0.00000004   1       4  C.gga
    0.98529741    3.24579167   -0.00000000   1       5  C.gga
    0.97469086    1.83596952    0.00000006   1       6  C.gga
    1.37642763    5.66984154    0.00000003   2       7  H.gga
    2.17383666    0.00472367    0.00000004   2       8  H.gga
    4.36766740    1.25487620    0.00000001   2       9  H.gga
    4.39185159    3.78131667   -0.00000002   2      10  H.gga
    0.03323464    3.81598048   -0.00000001   2      11  H.gga
    0.00476356    1.30088239    0.00000002   2      12  H.gga
    2.28824889    5.31825545   -0.00000012   3      13  O.gga

outcell: Unit cell vectors (Ang):
       20.000000    0.000000    0.000000
        0.000000   20.000000    0.000000
        0.000000    0.000000   20.000000

outcell: Cell vector modules (Ang)   :   20.000000   20.000000   20.000000
outcell: Cell angles (23,13,12) (deg):     90.0000     90.0000     90.0000
outcell: Cell volume (Ang**3)        :   8000.0000
<dSpData1D:S at geom step 114
  <sparsity:sparsity for geom step 114
    nrows_g=121 nrows=121 sparsity=.9980 nnzs=14611, refcount: 7>
  <dData1D:(new from dSpData1D) n=14611, refcount: 1>
refcount: 1>
new_DM -- step:   115
Re-using DM from previous geometries...
Number of DMs in history: 1
 DM extrapolation coefficients: 
1   1.00000
New DM after history re-use:
<dSpData2D:SpM extrapolated using coords
  <sparsity:sparsity for geom step 114
    nrows_g=121 nrows=121 sparsity=.9980 nnzs=14611, refcount: 8>
  <dData2D:(temp array for extrapolation) n=14611 m=1, refcount: 1>
refcount: 1>
No. of atoms with KB's overlaping orbs in proc 0. Max # of overlaps:      13     117
New grid distribution:   1
           1       1:  108    1:  108    1:  108

InitMesh: MESH =   216 x   216 x   216 =    10077696
InitMesh: (bp) =   108 x   108 x   108 =     1259712
InitMesh: Mesh cutoff (required, used) =   300.000   322.366 Ry
ExtMesh (bp) on 0 =   188 x   188 x   188 =     6644672
PhiOnMesh: Number of (b)points on node 0 =              1259712
PhiOnMesh: nlist on node 0 =              2631301

        iscf     Eharris(eV)        E_KS(eV)     FreeEng(eV)     dDmax    Ef(eV) dHmax(eV)
   scf:    1    -1515.727388    -1515.727392    -1515.727392  0.000009 -3.092369  0.000157

SCF Convergence by DM+H criterion
max |DM_out - DM_in|         :     0.0000087048
max |H_out - H_in|      (eV) :     0.0001570727
SCF cycle converged after 1 iterations

Using DM_out to compute the final energy and forces
No. of atoms with KB's overlaping orbs in proc 0. Max # of overlaps:      13     117

siesta: E_KS(eV) =            -1515.7274

siesta: Atomic forces (eV/Ang):
----------------------------------------
   Tot   -0.042878    0.018566   -0.000000
----------------------------------------
   Max    0.011698
   Res    0.004292    sqrt( Sum f_i^2 / 3N )
----------------------------------------
   Max    0.011698    constrained

Stress-tensor-Voigt (kbar):        0.00        0.01        0.00       -0.01        0.00       -0.00
(Free)E + p*V (eV/cell)    -1515.7596
Target enthalpy (eV/cell)    -1515.7274

                     ====================================
                        Begin FIRE opt. move =    115
                     ====================================

outcoor: Atomic coordinates (Ang):                          
    2.18510021    1.11148239    0.00000012   1       1  C.gga
    3.41065573    1.81343208    0.00000005   1       2  C.gga
    3.43684566    3.22154202   -0.00000001   1       3  C.gga
    2.21750926    3.94010913   -0.00000004   1       4  C.gga
    0.98528614    3.24579334   -0.00000000   1       5  C.gga
    0.97469552    1.83596313    0.00000006   1       6  C.gga
    1.37642479    5.66984249    0.00000003   2       7  H.gga
    2.17383773    0.00472367    0.00000004   2       8  H.gga
    4.36766505    1.25488203    0.00000001   2       9  H.gga
    4.39184426    3.78132472   -0.00000002   2      10  H.gga
    0.03322919    3.81597613   -0.00000001   2      11  H.gga
    0.00476093    1.30087749    0.00000002   2      12  H.gga
    2.28824331    5.31825764   -0.00000012   3      13  O.gga

outcell: Unit cell vectors (Ang):
       20.000000    0.000000    0.000000
        0.000000   20.000000    0.000000
        0.000000    0.000000   20.000000

outcell: Cell vector modules (Ang)   :   20.000000   20.000000   20.000000
outcell: Cell angles (23,13,12) (deg):     90.0000     90.0000     90.0000
outcell: Cell volume (Ang**3)        :   8000.0000
<dSpData1D:S at geom step 115
  <sparsity:sparsity for geom step 115
    nrows_g=121 nrows=121 sparsity=.9980 nnzs=14611, refcount: 7>
  <dData1D:(new from dSpData1D) n=14611, refcount: 1>
refcount: 1>
new_DM -- step:   116
Re-using DM from previous geometries...
Number of DMs in history: 1
 DM extrapolation coefficients: 
1   1.00000
New DM after history re-use:
<dSpData2D:SpM extrapolated using coords
  <sparsity:sparsity for geom step 115
    nrows_g=121 nrows=121 sparsity=.9980 nnzs=14611, refcount: 8>
  <dData2D:(temp array for extrapolation) n=14611 m=1, refcount: 1>
refcount: 1>
No. of atoms with KB's overlaping orbs in proc 0. Max # of overlaps:      13     117
New grid distribution:   1
           1       1:  108    1:  108    1:  108

InitMesh: MESH =   216 x   216 x   216 =    10077696
InitMesh: (bp) =   108 x   108 x   108 =     1259712
InitMesh: Mesh cutoff (required, used) =   300.000   322.366 Ry
ExtMesh (bp) on 0 =   188 x   188 x   188 =     6644672
PhiOnMesh: Number of (b)points on node 0 =              1259712
PhiOnMesh: nlist on node 0 =              2631317

        iscf     Eharris(eV)        E_KS(eV)     FreeEng(eV)     dDmax    Ef(eV) dHmax(eV)
   scf:    1    -1515.727388    -1515.727392    -1515.727392  0.000011 -3.092342  0.000185

SCF Convergence by DM+H criterion
max |DM_out - DM_in|         :     0.0000112964
max |H_out - H_in|      (eV) :     0.0001852412
SCF cycle converged after 1 iterations

Using DM_out to compute the final energy and forces
No. of atoms with KB's overlaping orbs in proc 0. Max # of overlaps:      13     117

siesta: E_KS(eV) =            -1515.7274

siesta: Atomic forces (eV/Ang):
----------------------------------------
   Tot   -0.042978    0.018643   -0.000000
----------------------------------------
   Max    0.010873
   Res    0.004049    sqrt( Sum f_i^2 / 3N )
----------------------------------------
   Max    0.010873    constrained

Stress-tensor-Voigt (kbar):        0.00        0.01        0.00       -0.01        0.00        0.00
(Free)E + p*V (eV/cell)    -1515.7598
Target enthalpy (eV/cell)    -1515.7274

                     ====================================
                        Begin FIRE opt. move =    116
                     ====================================

outcoor: Atomic coordinates (Ang):                          
    2.18509186    1.11148771    0.00000012   1       1  C.gga
    3.41066154    1.81343736    0.00000005   1       2  C.gga
    3.43682884    3.22155255   -0.00000001   1       3  C.gga
    2.21751191    3.94010996   -0.00000004   1       4  C.gga
    0.98527070    3.24579550   -0.00000000   1       5  C.gga
    0.97470160    1.83595452    0.00000006   1       6  C.gga
    1.37642071    5.66984384    0.00000003   2       7  H.gga
    2.17383923    0.00472374    0.00000004   2       8  H.gga
    4.36766184    1.25489021    0.00000001   2       9  H.gga
    4.39183388    3.78133604   -0.00000002   2      10  H.gga
    0.03322142    3.81597006   -0.00000001   2      11  H.gga
    0.00475733    1.30087061    0.00000002   2      12  H.gga
    2.28823558    5.31826072   -0.00000012   3      13  O.gga

outcell: Unit cell vectors (Ang):
       20.000000    0.000000    0.000000
        0.000000   20.000000    0.000000
        0.000000    0.000000   20.000000

outcell: Cell vector modules (Ang)   :   20.000000   20.000000   20.000000
outcell: Cell angles (23,13,12) (deg):     90.0000     90.0000     90.0000
outcell: Cell volume (Ang**3)        :   8000.0000
<dSpData1D:S at geom step 116
  <sparsity:sparsity for geom step 116
    nrows_g=121 nrows=121 sparsity=.9980 nnzs=14611, refcount: 7>
  <dData1D:(new from dSpData1D) n=14611, refcount: 1>
refcount: 1>
new_DM -- step:   117
Re-using DM from previous geometries...
Number of DMs in history: 1
 DM extrapolation coefficients: 
1   1.00000
New DM after history re-use:
<dSpData2D:SpM extrapolated using coords
  <sparsity:sparsity for geom step 116
    nrows_g=121 nrows=121 sparsity=.9980 nnzs=14611, refcount: 8>
  <dData2D:(temp array for extrapolation) n=14611 m=1, refcount: 1>
refcount: 1>
No. of atoms with KB's overlaping orbs in proc 0. Max # of overlaps:      13     117
New grid distribution:   1
           1       1:  108    1:  108    1:  108

InitMesh: MESH =   216 x   216 x   216 =    10077696
InitMesh: (bp) =   108 x   108 x   108 =     1259712
InitMesh: Mesh cutoff (required, used) =   300.000   322.366 Ry
ExtMesh (bp) on 0 =   188 x   188 x   188 =     6644672
PhiOnMesh: Number of (b)points on node 0 =              1259712
PhiOnMesh: nlist on node 0 =              2631310

        iscf     Eharris(eV)        E_KS(eV)     FreeEng(eV)     dDmax    Ef(eV) dHmax(eV)
   scf:    1    -1515.727388    -1515.727393    -1515.727393  0.000017 -3.092330  0.000517

SCF Convergence by DM+H criterion
max |DM_out - DM_in|         :     0.0000173659
max |H_out - H_in|      (eV) :     0.0005170202
SCF cycle converged after 1 iterations

Using DM_out to compute the final energy and forces
No. of atoms with KB's overlaping orbs in proc 0. Max # of overlaps:      13     117

siesta: E_KS(eV) =            -1515.7274

siesta: Atomic forces (eV/Ang):
----------------------------------------
   Tot   -0.042960    0.018677    0.000000
----------------------------------------
   Max    0.009777
   Res    0.003814    sqrt( Sum f_i^2 / 3N )
----------------------------------------
   Max    0.009777    constrained

Stress-tensor-Voigt (kbar):        0.00        0.01        0.00       -0.01       -0.00        0.00
(Free)E + p*V (eV/cell)    -1515.7594
Target enthalpy (eV/cell)    -1515.7274

outcoor: Relaxed atomic coordinates (Ang):                  
    2.18509186    1.11148771    0.00000012   1       1  C.gga
    3.41066154    1.81343736    0.00000005   1       2  C.gga
    3.43682884    3.22155255   -0.00000001   1       3  C.gga
    2.21751191    3.94010996   -0.00000004   1       4  C.gga
    0.98527070    3.24579550   -0.00000000   1       5  C.gga
    0.97470160    1.83595452    0.00000006   1       6  C.gga
    1.37642071    5.66984384    0.00000003   2       7  H.gga
    2.17383923    0.00472374    0.00000004   2       8  H.gga
    4.36766184    1.25489021    0.00000001   2       9  H.gga
    4.39183388    3.78133604   -0.00000002   2      10  H.gga
    0.03322142    3.81597006   -0.00000001   2      11  H.gga
    0.00475733    1.30087061    0.00000002   2      12  H.gga
    2.28823558    5.31826072   -0.00000012   3      13  O.gga

coxmol: Writing XMOL coordinates into file Phenol.xyz                                                          

siesta: Program's energy decomposition (eV):
siesta: Ebs     =      -459.029525
siesta: Eions   =      2250.705553
siesta: Ena     =       437.881620
siesta: Ekin    =      1024.187671
siesta: Enl     =      -188.594887
siesta: Eso     =         0.000000
siesta: Eldau   =         0.000000
siesta: DEna    =       -44.900043
siesta: DUscf   =         5.318012
siesta: DUext   =         0.000000
siesta: Exc     =      -498.914214
siesta: eta*DQ  =         0.000000
siesta: Emadel  =         0.000000
siesta: Emeta   =         0.000000
siesta: Emolmec =         0.000000
siesta: Ekinion =         0.000000
siesta: Eharris =     -1515.727388
siesta: Etot    =     -1515.727393
siesta: FreeEng =     -1515.727393

siesta: Final energy (eV):
siesta:  Band Struct. =    -459.029525
siesta:       Kinetic =    1024.187671
siesta:       Hartree =    3565.352031
siesta:       Eldau   =       0.000000
siesta:       Eso     =       0.000000
siesta:    Ext. field =       0.000000
siesta:   Exch.-corr. =    -498.914214
siesta:  Ion-electron =   -8042.425947
siesta:       Ion-ion =    2436.073066
siesta:       Ekinion =       0.000000
siesta:         Total =   -1515.727393
siesta:         Fermi =      -3.092330

siesta: Stress tensor (static) (eV/Ang**3):
siesta:     0.000002   -0.000008    0.000000
siesta:    -0.000008    0.000007   -0.000000
siesta:     0.000000   -0.000000    0.000003

siesta: Cell volume =       8000.000000 Ang**3

siesta: Pressure (static):
siesta:                Solid            Molecule  Units
siesta:          -0.00000004         -0.00000005  Ry/Bohr**3
siesta:          -0.00000401         -0.00000423  eV/Ang**3
siesta:          -0.00641835         -0.00678110  kBar
(Free)E+ p_basis*V_orbitals  =       -1508.493668
(Free)Eharris+ p_basis*V_orbitals  =       -1508.493663

siesta: Electric dipole (a.u.)  =   -0.453636    0.073841    0.000000
siesta: Electric dipole (Debye) =   -1.153027    0.187686    0.000000

timer: Elapsed wall time (sec) =    2342.230
timer: CPU execution times (sec):

Routine            Calls   Time/call    Tot.time        %
siesta                 1    2342.229    2342.229   100.00
Setup                  1       0.313       0.313     0.01
bands                  1       0.000       0.000     0.00
KSV_init               1       0.000       0.000     0.00
IterGeom             117      20.016    2341.898    99.99
state_init           117       0.011       1.304     0.06
hsparse              117       0.001       0.074     0.00
overlap              117       0.009       1.044     0.04
Setup_H0             117       2.994     350.255    14.95
naefs                234       0.000       0.019     0.00
MolMec               234       0.000       0.000     0.00
kinefsm              234       0.007       1.660     0.07
nlefsm               234       0.038       9.005     0.38
DHSCF_Init           117       2.948     344.960    14.73
DHSCF1               117       0.082       9.626     0.41
INITMESH             117       0.000       0.001     0.00
DHSCF2               117       2.866     335.333    14.32
REMESH               117       0.097      11.386     0.49
REORD               3107       0.017      51.295     2.19
PHION                117       1.685     197.194     8.42
COMM_BSC            1703       0.017      28.842     1.23
POISON               793       0.755     598.484    25.55
fft                 1586       0.296     470.067    20.07
IterSCF              442       3.063    1353.845    57.80
setup_H              559       2.415    1350.059    57.64
DHSCF                676       2.918    1972.326    84.21
DHSCF3               676       2.405    1625.803    69.41
rhoofd               676       0.342     231.135     9.87
CellXC               676       0.883     597.075    25.49
cellXC               676       0.883     597.068    25.49
vmat                 676       0.217     146.868     6.27
compute_dm           442       0.006       2.734     0.12
diagon               442       0.005       2.363     0.10
r-eigvec             442       0.005       2.081     0.09
r-buildHS            442       0.000       0.032     0.00
rdiag                442       0.005       2.048     0.09
rdiag1               442       0.000       0.120     0.01
rdiag2               442       0.001       0.294     0.01
rdiag3               442       0.003       1.386     0.06
rdiag4               442       0.001       0.240     0.01
r-buildD             442       0.000       0.212     0.01
MIXER                325       0.000       0.127     0.01
PostSCF              117       5.434     635.820    27.15
DHSCF4               117       2.962     346.522    14.79
dfscf                117       2.483     290.484    12.40
overfsm              117       0.005       0.539     0.02
state_analysis       117       0.002       0.281     0.01
siesta_move          117       0.001       0.113     0.00
Analysis               1       0.003       0.003     0.00
optical                1       0.000       0.000     0.00
  
>> End of run:  22-MAR-2019  13:02:07
Job completed
