Siesta Version  : v4.1-b4
Architecture    : linux
Compiler version: GNU Fortran (Ubuntu 5.4.0-6ubuntu1~16.04.11) 5.4.0 20160609
Compiler flags  : mpif90 -g -fPIC -O3 -ftree-vectorize
PP flags        : -DFC_HAVE_ABORT -DSIESTA__DIAG_2STAGE -DSIESTA__MRRR -DMPI
Libraries       :  -Wl,-Bstatic -Wl,--start-group -lmkl_scalapack_lp64 -lmkl_blacs_intelmpi_lp664 -lmkl_intel_lp64 -lmkl_sequential -lmkl_core -Wl,--end-group -Wl,-Bdynamic
PARALLEL version

* Running on 6 nodes in parallel
>> Start of run:  28-AUG-2019  12:28:50

                           ***********************       
                           *  WELCOME TO SIESTA  *       
                           ***********************       

reinit: Reading from standard input
reinit: Dumped input in INPUT_TMP.73016
************************** Dump of input data file ****************************
# Siesta input file
         # -- SELF-CONSISTENT FIELD --
MeshCutoff                   300 Ry
PAO.EnergyShift              30 meV
XC.Functional                GGA
XC.Authors                   PBE
MaxSCFIterations             1000
         # -- MOLECULAR DYNAMICS --
MD.TypeOfRun                 Broyden
MD.NumCGsteps                1000
MD.MaxForceTol               0.01 eV/Ang
         # -- MATERIAL --
SystemLabel                  BenzeneStacking
WriteCoorStep                true
WriteCoorXmol                true
%block ChemicalSpeciesLabel
 1   6   C.gga
 2   1   H.gga
%endblock ChemicalSpeciesLabel
AtomicCoordinatesFormat      Ang
LatticeConstant              1.000 Ang
%block LatticeVectors
       20.0000000000         0.0000000000         0.0000000000
        0.0000000000        20.0000000000         0.0000000000
        0.0000000000         0.0000000000        20.0000000000
%endblock LatticeVectors
%block AtomicCoordinatesAndAtomicSpecies
    3.68757635    0.22447705    5.47987222   1       1  C.gga
    2.27933078    0.32482738    5.47005613   1       2  C.gga
    1.58436755    0.38140347    4.24232630   1       3  C.gga
    2.29828825    0.34164330    3.02530520   1       4  C.gga
    3.70602704    0.24573711    3.03516774   1       5  C.gga
    4.40029613    0.18508083    4.26216955   1       6  C.gga
    4.72684095    3.82754678    4.20523335   1       7  C.gga
    3.31909681    3.92317004    4.19534706   1       8  C.gga
    2.62488073    3.98398005    2.96834763   1       9  C.gga
    3.33779763    3.94513550    1.75065703   1      10  C.gga
    4.74606233    3.84506922    1.76051719   1      11  C.gga
    5.44090499    3.78833570    2.98827556   1      12  C.gga
    4.23398185    0.18018529    6.44266250   2      13  H.gga
    1.71977854    0.35978279    6.42547681   2      14  H.gga
    0.47936850    0.46060933    4.23360397   2      15  H.gga
    1.75520524    0.39424636    2.06119767   2      16  H.gga
    4.26668834    0.23014677    2.08026254   2      17  H.gga
    5.50577393    0.11519589    4.26832154   2      18  H.gga
    5.27002664    3.77483898    5.16922089   2      19  H.gga
    2.75839566    3.93833666    5.15024102   2      20  H.gga
    1.51936558    4.05358579    2.96214482   2      21  H.gga
    2.79145141    3.98949182    0.78793624   2      22  H.gga
    5.30577635    3.81030812    0.80517113   2      23  H.gga
    6.54590592    3.70935464    2.99729112   2      24  H.gga
%endblock AtomicCoordinatesAndAtomicSpecies
************************** End of input data file *****************************

reinit: -----------------------------------------------------------------------
reinit: System Name: 
reinit: -----------------------------------------------------------------------
reinit: System Label: BenzeneStacking
reinit: -----------------------------------------------------------------------

initatom: Reading input for the pseudopotentials and atomic orbitals ----------
Species number:   1 Atomic number:    6 Label: C.gga
Species number:   2 Atomic number:    1 Label: H.gga

Ground state valence configuration:   2s02  2p02
Reading pseudopotential information in formatted form from C.gga.psf

Valence configuration for pseudopotential generation:
2s( 2.00) rc: 1.54
2p( 2.00) rc: 1.54
3d( 0.00) rc: 1.54
4f( 0.00) rc: 1.54
Ground state valence configuration:   1s01
Reading pseudopotential information in formatted form from H.gga.psf

Valence configuration for pseudopotential generation:
1s( 1.00) rc: 1.31
2p( 0.00) rc: 1.31
3d( 0.00) rc: 0.37
4f( 0.00) rc: 1.31
For C.gga, standard SIESTA heuristics set lmxkb to 3
 (one more than the basis l, including polarization orbitals).
Use PS.lmax or PS.KBprojectors blocks to override.
For H.gga, standard SIESTA heuristics set lmxkb to 2
 (one more than the basis l, including polarization orbitals).
Use PS.lmax or PS.KBprojectors blocks to override.

<basis_specs>
===============================================================================
C.gga                Z=   6    Mass=  12.010        Charge= 0.17977+309
Lmxo=1 Lmxkb= 3    BasisType=split      Semic=F
L=0  Nsemic=0  Cnfigmx=2
          n=1  nzeta=2  polorb=0
            splnorm:   0.15000    
               vcte:    0.0000    
               rinn:    0.0000    
               qcoe:    0.0000    
               qyuk:    0.0000    
               qwid:   0.10000E-01
                rcs:    0.0000      0.0000    
            lambdas:    1.0000      1.0000    
L=1  Nsemic=0  Cnfigmx=2
          n=1  nzeta=2  polorb=1
            splnorm:   0.15000    
               vcte:    0.0000    
               rinn:    0.0000    
               qcoe:    0.0000    
               qyuk:    0.0000    
               qwid:   0.10000E-01
                rcs:    0.0000      0.0000    
            lambdas:    1.0000      1.0000    
-------------------------------------------------------------------------------
L=0  Nkbl=1  erefs: 0.17977+309
L=1  Nkbl=1  erefs: 0.17977+309
L=2  Nkbl=1  erefs: 0.17977+309
L=3  Nkbl=1  erefs: 0.17977+309
===============================================================================
</basis_specs>

atom: Called for C.gga                 (Z =   6)

read_vps: Pseudopotential generation method:
read_vps: ATM3      Troullier-Martins                       
Total valence charge:    4.00000

read_vps: Pseudopotential includes a core correction:
read_vps: Pseudo-core for xc-correction

xc_check: Exchange-correlation functional:
xc_check: GGA Perdew, Burke & Ernzerhof 1996
V l=0 = -2*Zval/r beyond r=  1.5227
V l=1 = -2*Zval/r beyond r=  1.5227
V l=2 = -2*Zval/r beyond r=  1.5227
V l=3 = -2*Zval/r beyond r=  1.5038
All V_l potentials equal beyond r=  1.5227
This should be close to max(r_c) in ps generation
All pots = -2*Zval/r beyond r=  1.5227

VLOCAL1: 99.0% of the norm of Vloc inside     18.722 Ry
VLOCAL1: 99.9% of the norm of Vloc inside     42.668 Ry
atom: Maximum radius for 4*pi*r*r*local-pseudopot. charge    1.83678
atom: Maximum radius for r*vlocal+2*Zval:    1.58088
GHOST: No ghost state for L =  0
GHOST: No ghost state for L =  1
GHOST: No ghost state for L =  2
GHOST: No ghost state for L =  3

KBgen: Kleinman-Bylander projectors: 
   l= 0   rc=  1.704034   el= -1.009801   Ekb=  5.335044   kbcos=  0.316824
   l= 1   rc=  1.704034   el= -0.388707   Ekb= -3.785862   kbcos= -0.366464
   l= 2   rc=  1.791422   el=  0.001971   Ekb= -0.970471   kbcos= -0.009212
   l= 3   rc=  1.859892   el=  0.003065   Ekb= -0.399525   kbcos= -0.001223

KBgen: Total number of  Kleinman-Bylander projectors:   16
atom: -------------------------------------------------------------------------

atom: SANKEY-TYPE ORBITALS:
atom: Selected multiple-zeta basis: split     

SPLIT: Orbitals with angular momentum L= 0

SPLIT: Basis orbitals for state 2s

SPLIT: PAO cut-off radius determined from an
SPLIT: energy shift=  0.002205 Ry

   izeta = 1
                 lambda =    1.000000
                     rc =    5.382558
                 energy =   -1.007983
                kinetic =    0.829025
    potential(screened) =   -1.837009
       potential(ionic) =   -5.376592

   izeta = 2
                 rmatch =    3.475094
              splitnorm =    0.150000
                 energy =   -0.876935
                kinetic =    1.279964
    potential(screened) =   -2.156899
       potential(ionic) =   -5.943761

SPLIT: Orbitals with angular momentum L= 1

SPLIT: Basis orbitals for state 2p

SPLIT: PAO cut-off radius determined from an
SPLIT: energy shift=  0.002205 Ry

   izeta = 1
                 lambda =    1.000000
                     rc =    6.740804
                 energy =   -0.386704
                kinetic =    2.327316
    potential(screened) =   -2.714020
       potential(ionic) =   -6.100339

   izeta = 2
                 rmatch =    3.792903
              splitnorm =    0.150000
                 energy =   -0.270625
                kinetic =    3.420974
    potential(screened) =   -3.691599
       potential(ionic) =   -7.453004

POLgen: Perturbative polarization orbital with L=  2

POLgen: Polarization orbital for state 2p

   izeta = 1
                     rc =    6.740804
                 energy =    0.975645
                kinetic =    2.058046
    potential(screened) =   -1.082401
       potential(ionic) =   -3.782952
atom: Total number of Sankey-type orbitals: 13

atm_pop: Valence configuration (for local Pseudopot. screening):
 2s( 2.00)                                                            
 2p( 2.00)                                                            
Vna: chval, zval:    4.00000   4.00000

Vna:  Cut-off radius for the neutral-atom potential:   6.740804
comcore: Pseudo-core radius Rcore=  1.791422

atom: _________________________________________________________________________

<basis_specs>
===============================================================================
H.gga                Z=   1    Mass=  1.0100        Charge= 0.17977+309
Lmxo=0 Lmxkb= 2    BasisType=split      Semic=F
L=0  Nsemic=0  Cnfigmx=1
          n=1  nzeta=2  polorb=1
            splnorm:   0.15000    
               vcte:    0.0000    
               rinn:    0.0000    
               qcoe:    0.0000    
               qyuk:    0.0000    
               qwid:   0.10000E-01
                rcs:    0.0000      0.0000    
            lambdas:    1.0000      1.0000    
-------------------------------------------------------------------------------
L=0  Nkbl=1  erefs: 0.17977+309
L=1  Nkbl=1  erefs: 0.17977+309
L=2  Nkbl=1  erefs: 0.17977+309
===============================================================================
</basis_specs>

atom: Called for H.gga                 (Z =   1)

read_vps: Pseudopotential generation method:
read_vps: ATM3      Troullier-Martins                       
Total valence charge:    1.00000

xc_check: Exchange-correlation functional:
xc_check: GGA Perdew, Burke & Ernzerhof 1996
V l=0 = -2*Zval/r beyond r=  1.2977
V l=1 = -2*Zval/r beyond r=  1.2815
V l=2 = -2*Zval/r beyond r=  1.2656
All V_l potentials equal beyond r=  1.2977
This should be close to max(r_c) in ps generation
All pots = -2*Zval/r beyond r=  1.2977

VLOCAL1: 99.0% of the norm of Vloc inside     25.776 Ry
VLOCAL1: 99.9% of the norm of Vloc inside     58.745 Ry
atom: Maximum radius for 4*pi*r*r*local-pseudopot. charge    1.52711
atom: Maximum radius for r*vlocal+2*Zval:    1.28155
GHOST: No ghost state for L =  0
GHOST: No ghost state for L =  1
GHOST: No ghost state for L =  2

KBgen: Kleinman-Bylander projectors: 
   l= 0   rc=  1.434438   el= -0.477200   Ekb= -1.957043   kbcos= -0.361614
   l= 1   rc=  1.508111   el=  0.001076   Ekb= -0.424224   kbcos= -0.025441
   l= 2   rc=  1.527112   el=  0.002010   Ekb= -0.378578   kbcos= -0.002010

KBgen: Total number of  Kleinman-Bylander projectors:    9
atom: -------------------------------------------------------------------------

atom: SANKEY-TYPE ORBITALS:
atom: Selected multiple-zeta basis: split     

SPLIT: Orbitals with angular momentum L= 0

SPLIT: Basis orbitals for state 1s

SPLIT: PAO cut-off radius determined from an
SPLIT: energy shift=  0.002205 Ry

   izeta = 1
                 lambda =    1.000000
                     rc =    6.518340
                 energy =   -0.475328
                kinetic =    0.879188
    potential(screened) =   -1.354517
       potential(ionic) =   -1.873657

   izeta = 2
                 rmatch =    4.103729
              splitnorm =    0.150000
                 energy =   -0.382914
                kinetic =    1.427335
    potential(screened) =   -1.810249
       potential(ionic) =   -2.357086

POLgen: Perturbative polarization orbital with L=  1

POLgen: Polarization orbital for state 1s

   izeta = 1
                     rc =    6.518340
                 energy =    0.536347
                kinetic =    1.136516
    potential(screened) =   -0.600169
       potential(ionic) =   -1.065665
atom: Total number of Sankey-type orbitals:  5

atm_pop: Valence configuration (for local Pseudopot. screening):
 1s( 1.00)                                                            
Vna: chval, zval:    1.00000   1.00000

Vna:  Cut-off radius for the neutral-atom potential:   6.518340

atom: _________________________________________________________________________

prinput: Basis input ----------------------------------------------------------

PAO.BasisType split     

%block ChemicalSpeciesLabel
    1    6 C.gga                   # Species index, atomic number, species label
    2    1 H.gga                   # Species index, atomic number, species label
%endblock ChemicalSpeciesLabel

%block PAO.Basis                 # Define Basis set
C.gga                 2                    # Species label, number of l-shells
 n=2   0   2                         # n, l, Nzeta 
   5.383      3.475   
   1.000      1.000   
 n=2   1   2 P   1                   # n, l, Nzeta, Polarization, NzetaPol
   6.741      3.793   
   1.000      1.000   
H.gga                 1                    # Species label, number of l-shells
 n=1   0   2 P   1                   # n, l, Nzeta, Polarization, NzetaPol
   6.518      4.104   
   1.000      1.000   
%endblock PAO.Basis

prinput: ----------------------------------------------------------------------

coor:   Atomic-coordinates input format  =     Cartesian coordinates
coor:                                          (in Angstroms)

siesta: Atomic coordinates (Bohr) and species
siesta:      6.96851   0.42420  10.35546  1        1
siesta:      4.30731   0.61384  10.33691  1        2
siesta:      2.99402   0.72075   8.01684  1        3
siesta:      4.34314   0.64561   5.71700  1        4
siesta:      7.00338   0.46438   5.73564  1        5
siesta:      8.31536   0.34975   8.05434  1        6
siesta:      8.93244   7.23302   7.94674  1        7
siesta:      6.27219   7.41372   7.92806  1        8
siesta:      4.96031   7.52863   5.60937  1        9
siesta:      6.30753   7.45523   3.30826  1       10
siesta:      8.96876   7.26613   3.32690  1       11
siesta:     10.28182   7.15892   5.64702  1       12
siesta:      8.00107   0.34050  12.17487  2       13
siesta:      3.24991   0.67989  12.14240  2       14
siesta:      0.90588   0.87043   8.00036  2       15
siesta:      3.31686   0.74502   3.89510  2       16
siesta:      8.06288   0.43491   3.93113  2       17
siesta:     10.40441   0.21769   8.06596  2       18
siesta:      9.95891   7.13341   9.76842  2       19
siesta:      5.21261   7.44238   9.73255  2       20
siesta:      2.87119   7.66017   5.59764  2       21
siesta:      5.27508   7.53905   1.48898  2       22
siesta:     10.02647   7.20044   1.52155  2       23
siesta:     12.36997   7.00967   5.66406  2       24

siesta: System type = molecule  

initatomlists: Number of atoms, orbitals, and projectors:     24   216   300

coxmol: Writing XMOL coordinates into file BenzeneStacking.xyz                                                 

siesta: ******************** Simulation parameters ****************************
siesta:
siesta: The following are some of the parameters of the simulation.
siesta: A complete list of the parameters used, including default values,
siesta: can be found in file out.fdf
siesta:
redata: Spin configuration                          = none
redata: Number of spin components                   = 1
redata: Time-Reversal Symmetry                      = T
redata: Spin-spiral                                 = F
redata: Long output                                 =   F
redata: Number of Atomic Species                    =        2
redata: Charge density info will appear in .RHO file
redata: Write Mulliken Pop.                         = NO
redata: Matel table size (NRTAB)                    =     1024
redata: Mesh Cutoff                                 =   300.0000 Ry
redata: Net charge of the system                    =     0.0000 |e|
redata: Min. number of SCF Iter                     =        0
redata: Max. number of SCF Iter                     =     1000
redata: SCF convergence failure will abort job
redata: SCF mix quantity                            = Hamiltonian
redata: Mix DM or H after convergence               =   F
redata: Recompute H after scf cycle                 =   F
redata: Mix DM in first SCF step                    =   T
redata: Write Pulay info on disk                    =   F
redata: New DM Mixing Weight                        =     0.2500
redata: New DM Occupancy tolerance                  = 0.000000000001
redata: No kicks to SCF
redata: DM Mixing Weight for Kicks                  =     0.5000
redata: Require Harris convergence for SCF          =   F
redata: Harris energy tolerance for SCF             =     0.000100 eV
redata: Require DM convergence for SCF              =   T
redata: DM tolerance for SCF                        =     0.000100
redata: Require EDM convergence for SCF             =   F
redata: EDM tolerance for SCF                       =     0.001000 eV
redata: Require H convergence for SCF               =   T
redata: Hamiltonian tolerance for SCF               =     0.001000 eV
redata: Require (free) Energy convergence for SCF   =   F
redata: (free) Energy tolerance for SCF             =     0.000100 eV
redata: Using Saved Data (generic)                  =   F
redata: Use continuation files for DM               =   F
redata: Neglect nonoverlap interactions             =   F
redata: Method of Calculation                       = Diagonalization
redata: Electronic Temperature                      =   299.9869 K
redata: Fix the spin of the system                  =   F
redata: Dynamics option                             = Broyden coord. optimization
redata: Variable cell                               =   F
redata: Maximum number of CG moves                  =     1000
redata: Force tolerance                             =     0.0100 eV/Ang
mix.SCF: Pulay mixing                            = Pulay
mix.SCF:    Variant                              = stable
mix.SCF:    History steps                        = 2
mix.SCF:    Linear mixing weight                 =     0.250000
mix.SCF:    Mixing weight                        =     0.250000
mix.SCF:    SVD condition                        = 0.1000E-07
redata: ***********************************************************************

%block SCF.Mixers
  Pulay
%endblock SCF.Mixers

%block SCF.Mixer.Pulay
  # Mixing method
  method pulay
  variant stable

  # Mixing options
  weight 0.2500
  weight.linear 0.2500
  history 2
%endblock SCF.Mixer.Pulay

DM_history_depth set to one: no extrapolation allowed by default for geometry relaxation
Size of DM history Fstack: 1
Total number of electrons:    60.000000
Total ionic charge:    60.000000

* ProcessorY, Blocksize:    2  24


* Orbital distribution balance (max,min):    48    24

 Kpoints in:            1 . Kpoints trimmed:            1

siesta: k-grid: Number of k-points =     1
siesta: k-grid: Cutoff (effective) =    10.000 Ang
siesta: k-grid: Supercell and displacements
siesta: k-grid:    1   0   0      0.000
siesta: k-grid:    0   1   0      0.000
siesta: k-grid:    0   0   1      0.000

diag: Algorithm                                     = D&C
diag: Parallel over k                               =   F
diag: Use parallel 2D distribution                  =   T
diag: Parallel block-size                           = 24
diag: Parallel distribution                         =     2 x     3
diag: Used triangular part                          = Lower
diag: Absolute tolerance                            =  0.100E-15
diag: Orthogonalization factor                      =  0.100E-05
diag: Memory factor                                 =  1.0000


ts: **************************************************************
ts: Save H and S matrices                           =    F
ts: Save DM and EDM matrices                        =    F
ts: Fix Hartree potential                           =    F
ts: Only save the overlap matrix S                  =    F
ts: **************************************************************

************************ Begin: TS CHECKS AND WARNINGS ************************
************************ End: TS CHECKS AND WARNINGS **************************


                     ====================================
                        Begin Broyden opt. move =      0
                     ====================================

outcoor: Atomic coordinates (Ang):                          
    3.68757635    0.22447705    5.47987222   1       1  C.gga
    2.27933078    0.32482738    5.47005613   1       2  C.gga
    1.58436755    0.38140347    4.24232630   1       3  C.gga
    2.29828825    0.34164330    3.02530520   1       4  C.gga
    3.70602704    0.24573711    3.03516774   1       5  C.gga
    4.40029613    0.18508083    4.26216955   1       6  C.gga
    4.72684095    3.82754678    4.20523335   1       7  C.gga
    3.31909681    3.92317004    4.19534706   1       8  C.gga
    2.62488073    3.98398005    2.96834763   1       9  C.gga
    3.33779763    3.94513550    1.75065703   1      10  C.gga
    4.74606233    3.84506922    1.76051719   1      11  C.gga
    5.44090499    3.78833570    2.98827556   1      12  C.gga
    4.23398185    0.18018529    6.44266250   2      13  H.gga
    1.71977854    0.35978279    6.42547681   2      14  H.gga
    0.47936850    0.46060933    4.23360397   2      15  H.gga
    1.75520524    0.39424636    2.06119767   2      16  H.gga
    4.26668834    0.23014677    2.08026254   2      17  H.gga
    5.50577393    0.11519589    4.26832154   2      18  H.gga
    5.27002664    3.77483898    5.16922089   2      19  H.gga
    2.75839566    3.93833666    5.15024102   2      20  H.gga
    1.51936558    4.05358579    2.96214482   2      21  H.gga
    2.79145141    3.98949182    0.78793624   2      22  H.gga
    5.30577635    3.81030812    0.80517113   2      23  H.gga
    6.54590592    3.70935464    2.99729112   2      24  H.gga

outcell: Unit cell vectors (Ang):
       20.000000    0.000000    0.000000
        0.000000   20.000000    0.000000
        0.000000    0.000000   20.000000

outcell: Cell vector modules (Ang)   :   20.000000   20.000000   20.000000
outcell: Cell angles (23,13,12) (deg):     90.0000     90.0000     90.0000
outcell: Cell volume (Ang**3)        :   8000.0000
<dSpData1D:S at geom step 0
  <sparsity:sparsity for geom step 0
    nrows_g=216 nrows=48 sparsity=.2070 nnzs=9657, refcount: 7>
  <dData1D:(new from dSpData1D) n=9657, refcount: 1>
refcount: 1>
new_DM -- step:     1
Initializing Density Matrix...
DM filled with atomic data:
<dSpData2D:DM initialized from atoms
  <sparsity:sparsity for geom step 0
    nrows_g=216 nrows=48 sparsity=.2070 nnzs=9657, refcount: 8>
  <dData2D:DM n=9657 m=1, refcount: 1>
refcount: 1>
No. of atoms with KB's overlaping orbs in proc 0. Max # of overlaps:      24     164
New grid distribution:   1
           1       1:  108    1:   54    1:   36
           2       1:  108    1:   54   37:   72
           3       1:  108    1:   54   73:  108
           4       1:  108   55:  108    1:   36
           5       1:  108   55:  108   37:   72
           6       1:  108   55:  108   73:  108

InitMesh: MESH =   216 x   216 x   216 =    10077696
InitMesh: (bp) =   108 x   108 x   108 =     1259712
InitMesh: Mesh cutoff (required, used) =   300.000   322.366 Ry
ExtMesh (bp) on 0 =   188 x   134 x   116 =     2922272
New grid distribution:   2
           1       1:   21   13:  108    1:   20
           2       1:  108    1:   11   21:  108
           3       1:  108    1:   12    1:   20
           4      22:  108   13:  108    1:   20
           5      20:  108   12:  108   21:  108
           6       1:   19   12:  108   21:  108
New grid distribution:   3
           1       1:   26   18:  108    1:   25
           2       1:  108    1:   16   26:  108
           3       1:  108    1:   17    1:   25
           4      27:  108   18:  108    1:   25
           5      24:  108   17:  108   26:  108
           6       1:   23   17:  108   26:  108
Setting up quadratic distribution...
ExtMesh (bp) on 0 =   101 x   176 x   100 =     1777600
PhiOnMesh: Number of (b)points on node 0 =                40320
PhiOnMesh: nlist on node 0 =               827305

stepf: Fermi-Dirac step function

siesta: Program's energy decomposition (eV):
siesta: Ebs     =      -507.488371
siesta: Eions   =      3292.100692
siesta: Ena     =       751.275128
siesta: Ekin    =      1544.730200
siesta: Enl     =      -204.025634
siesta: Eso     =         0.000000
siesta: Eldau   =         0.000000
siesta: DEna    =      -153.608282
siesta: DUscf   =        23.763723
siesta: DUext   =         0.000000
siesta: Enegf   =         0.000000
siesta: Exc     =      -800.409514
siesta: eta*DQ  =         0.000000
siesta: Emadel  =         0.000000
siesta: Emeta   =         0.000000
siesta: Emolmec =         0.000000
siesta: Ekinion =         0.000000
siesta: Eharris =     -2125.297101
siesta: Etot    =     -2130.375071
siesta: FreeEng =     -2130.375071

        iscf     Eharris(eV)        E_KS(eV)     FreeEng(eV)     dDmax    Ef(eV) dHmax(eV)
   scf:    1    -2125.297101    -2130.375071    -2130.375071  1.979145 -9.257826  9.454252
timer: Routine,Calls,Time,% = IterSCF        1       4.168  54.38
   scf:    2    -2140.153890    -2135.835172    -2135.835172  0.113654 -7.045488  4.748922
   scf:    3    -2138.069425    -2137.473057    -2137.473057  0.119304 -4.905180  0.803766
   scf:    4    -2137.624854    -2137.555660    -2137.555660  0.009019 -4.893441  0.533875
   scf:    5    -2137.609018    -2137.585306    -2137.585306  0.009251 -4.832113  0.285778
   scf:    6    -2137.596726    -2137.591650    -2137.591650  0.007574 -4.742238  0.103889
   scf:    7    -2137.592514    -2137.592186    -2137.592186  0.004084 -4.673373  0.027728
   scf:    8    -2137.592640    -2137.592435    -2137.592435  0.000450 -4.670240  0.018336
   scf:    9    -2137.592584    -2137.592519    -2137.592519  0.000515 -4.670060  0.008479
   scf:   10    -2137.592539    -2137.592530    -2137.592530  0.000274 -4.671444  0.004030
   scf:   11    -2137.592533    -2137.592532    -2137.592532  0.000227 -4.672987  0.000719
   scf:   12    -2137.592532    -2137.592532    -2137.592532  0.000014 -4.673190  0.000344

SCF Convergence by DM+H criterion
max |DM_out - DM_in|         :     0.0000138279
max |H_out - H_in|      (eV) :     0.0003441130
SCF cycle converged after 12 iterations

Using DM_out to compute the final energy and forces
No. of atoms with KB's overlaping orbs in proc 0. Max # of overlaps:      24     164

siesta: E_KS(eV) =            -2137.5925

siesta: E_KS - E_eggbox =     -2137.5925

siesta: Atomic forces (eV/Ang):
----------------------------------------
   Tot   -0.004233   -0.000063    0.000111
----------------------------------------
   Max    0.010026
   Res    0.004877    sqrt( Sum f_i^2 / 3N )
----------------------------------------
   Max    0.010026    constrained

Stress-tensor-Voigt (kbar):       -0.01       -0.06       -0.01       -0.02        0.02        0.01
(Free)E + p*V (eV/cell)    -2137.4551
Target enthalpy (eV/cell)    -2137.5925

Broyden_optim: max_history for broyden:   5
Broyden_optim: cycle on maxit: T
Broyden_optim: initial inverse jacobian:   1.0000

Broyden_optim: No of elements:     72

                     ====================================
                        Begin Broyden opt. move =      1
                     ====================================

outcoor: Atomic coordinates (Ang):                          
    3.68747764    0.22430694    5.47992320   1       1  C.gga
    2.27925624    0.32466673    5.47009074   1       2  C.gga
    1.58438564    0.38123197    4.24241044   1       3  C.gga
    2.29817090    0.34152070    3.02527844   1       4  C.gga
    3.70607756    0.24553075    3.03517349   1       5  C.gga
    4.40028175    0.18494667    4.26217423   1       6  C.gga
    4.72695048    3.82768935    4.20524919   1       7  C.gga
    3.31902181    3.92337395    4.19536549   1       8  C.gga
    2.62493449    3.98412315    2.96830185   1       9  C.gga
    3.33785868    3.94529435    1.75067895   1      10  C.gga
    4.74612935    3.84522706    1.76048015   1      11  C.gga
    5.44087883    3.78849299    2.98820072   1      12  C.gga
    4.23387845    0.18010201    6.44271702   2      13  H.gga
    1.71970272    0.35962083    6.42558681   2      14  H.gga
    0.47929783    0.46050929    4.23370139   2      15  H.gga
    1.75510011    0.39417087    2.06128819   2      16  H.gga
    4.26671346    0.22997925    2.08024102   2      17  H.gga
    5.50577381    0.11509483    4.26841179   2      18  H.gga
    5.27012955    3.77490975    5.16918105   2      19  H.gga
    2.75838127    3.93850367    5.15025626   2      20  H.gga
    1.51937398    4.05368154    2.96204738   2      21  H.gga
    2.79152078    3.98957840    0.78782737   2      22  H.gga
    5.30583877    3.81047680    0.80505121   2      23  H.gga
    6.54596628    3.70945570    2.99717110   2      24  H.gga

outcell: Unit cell vectors (Ang):
       20.000000    0.000000    0.000000
        0.000000   20.000000    0.000000
        0.000000    0.000000   20.000000

outcell: Cell vector modules (Ang)   :   20.000000   20.000000   20.000000
outcell: Cell angles (23,13,12) (deg):     90.0000     90.0000     90.0000
outcell: Cell volume (Ang**3)        :   8000.0000
<dSpData1D:S at geom step 1
  <sparsity:sparsity for geom step 1
    nrows_g=216 nrows=48 sparsity=.2070 nnzs=9657, refcount: 7>
  <dData1D:(new from dSpData1D) n=9657, refcount: 1>
refcount: 1>
new_DM -- step:     2
Re-using DM from previous geometries...
Number of DMs in history: 1
 DM extrapolation coefficients: 
1   1.00000
New DM after history re-use:
<dSpData2D:SpM extrapolated using coords
  <sparsity:sparsity for geom step 1
    nrows_g=216 nrows=48 sparsity=.2070 nnzs=9657, refcount: 9>
  <dData2D:(temp array for extrapolation) n=9657 m=1, refcount: 1>
refcount: 1>
No. of atoms with KB's overlaping orbs in proc 0. Max # of overlaps:      24     164
New grid distribution:   1
           1       1:  108    1:   54    1:   36
           2       1:  108    1:   54   37:   72
           3       1:  108    1:   54   73:  108
           4       1:  108   55:  108    1:   36
           5       1:  108   55:  108   37:   72
           6       1:  108   55:  108   73:  108

InitMesh: MESH =   216 x   216 x   216 =    10077696
InitMesh: (bp) =   108 x   108 x   108 =     1259712
InitMesh: Mesh cutoff (required, used) =   300.000   322.366 Ry
ExtMesh (bp) on 0 =   188 x   134 x   116 =     2922272
New grid distribution:   2
           1       1:   21   13:  108    1:   20
           2       1:  108    1:   11   21:  108
           3       1:  108    1:   12    1:   20
           4      22:  108   13:  108    1:   20
           5      20:  108   12:  108   21:  108
           6       1:   19   12:  108   21:  108
New grid distribution:   3
           1       1:   26   18:  108    1:   25
           2       1:  108    1:   16   26:  108
           3       1:  108    1:   17    1:   25
           4      27:  108   18:  108    1:   25
           5      24:  108   17:  108   26:  108
           6       1:   23   17:  108   26:  108
Setting up quadratic distribution...
ExtMesh (bp) on 0 =   101 x   176 x   100 =     1777600
PhiOnMesh: Number of (b)points on node 0 =                40320
PhiOnMesh: nlist on node 0 =               827335

        iscf     Eharris(eV)        E_KS(eV)     FreeEng(eV)     dDmax    Ef(eV) dHmax(eV)
   scf:    1    -2137.594176    -2137.592564    -2137.592564  0.000100 -4.673191  0.001380
   scf:    2    -2137.592561    -2137.592563    -2137.592563  0.000060 -4.673142  0.003085
   scf:    3    -2137.592564    -2137.592564    -2137.592564  0.000042 -4.673191  0.000364

SCF Convergence by DM+H criterion
max |DM_out - DM_in|         :     0.0000418510
max |H_out - H_in|      (eV) :     0.0003639602
SCF cycle converged after 3 iterations

Using DM_out to compute the final energy and forces
No. of atoms with KB's overlaping orbs in proc 0. Max # of overlaps:      24     164

siesta: E_KS(eV) =            -2137.5926

siesta: Atomic forces (eV/Ang):
----------------------------------------
   Tot   -0.004266   -0.000091    0.000052
----------------------------------------
   Max    0.008834
   Res    0.004833    sqrt( Sum f_i^2 / 3N )
----------------------------------------
   Max    0.008834    constrained

Stress-tensor-Voigt (kbar):       -0.01       -0.06       -0.01       -0.02        0.02        0.01
(Free)E + p*V (eV/cell)    -2137.4637
Target enthalpy (eV/cell)    -2137.5926

outcoor: Relaxed atomic coordinates (Ang):                  
    3.68747764    0.22430694    5.47992320   1       1  C.gga
    2.27925624    0.32466673    5.47009074   1       2  C.gga
    1.58438564    0.38123197    4.24241044   1       3  C.gga
    2.29817090    0.34152070    3.02527844   1       4  C.gga
    3.70607756    0.24553075    3.03517349   1       5  C.gga
    4.40028175    0.18494667    4.26217423   1       6  C.gga
    4.72695048    3.82768935    4.20524919   1       7  C.gga
    3.31902181    3.92337395    4.19536549   1       8  C.gga
    2.62493449    3.98412315    2.96830185   1       9  C.gga
    3.33785868    3.94529435    1.75067895   1      10  C.gga
    4.74612935    3.84522706    1.76048015   1      11  C.gga
    5.44087883    3.78849299    2.98820072   1      12  C.gga
    4.23387845    0.18010201    6.44271702   2      13  H.gga
    1.71970272    0.35962083    6.42558681   2      14  H.gga
    0.47929783    0.46050929    4.23370139   2      15  H.gga
    1.75510011    0.39417087    2.06128819   2      16  H.gga
    4.26671346    0.22997925    2.08024102   2      17  H.gga
    5.50577381    0.11509483    4.26841179   2      18  H.gga
    5.27012955    3.77490975    5.16918105   2      19  H.gga
    2.75838127    3.93850367    5.15025626   2      20  H.gga
    1.51937398    4.05368154    2.96204738   2      21  H.gga
    2.79152078    3.98957840    0.78782737   2      22  H.gga
    5.30583877    3.81047680    0.80505121   2      23  H.gga
    6.54596628    3.70945570    2.99717110   2      24  H.gga

coxmol: Writing XMOL coordinates into file BenzeneStacking.xyz                                                 

siesta: Program's energy decomposition (eV):
siesta: Ebs     =      -720.038473
siesta: Eions   =      3292.100692
siesta: Ena     =       751.275754
siesta: Ekin    =      1444.303221
siesta: Enl     =      -188.482960
siesta: Eso     =         0.000000
siesta: Eldau   =         0.000000
siesta: DEna    =       -85.551257
siesta: DUscf   =        10.088474
siesta: DUext   =         0.000000
siesta: Enegf   =         0.000000
siesta: Exc     =      -777.125105
siesta: eta*DQ  =         0.000000
siesta: Emadel  =         0.000000
siesta: Emeta   =         0.000000
siesta: Emolmec =         0.000000
siesta: Ekinion =         0.000000
siesta: Eharris =     -2137.592564
siesta: Etot    =     -2137.592564
siesta: FreeEng =     -2137.592564

siesta: Final energy (eV):
siesta:  Band Struct. =    -720.038473
siesta:       Kinetic =    1444.303221
siesta:       Hartree =    6394.773744
siesta:       Eldau   =       0.000000
siesta:       Eso     =       0.000000
siesta:    Ext. field =       0.000000
siesta:       Enegf   =       0.000000
siesta:   Exch.-corr. =    -777.125105
siesta:  Ion-electron =  -14063.415081
siesta:       Ion-ion =    4863.870657
siesta:       Ekinion =       0.000000
siesta:         Total =   -2137.592564
siesta:         Fermi =      -4.673191

siesta: Stress tensor (static) (eV/Ang**3):
siesta:    -0.000003   -0.000010    0.000006
siesta:    -0.000010   -0.000036    0.000012
siesta:     0.000006    0.000012   -0.000009

siesta: Cell volume =       8000.000000 Ang**3

siesta: Pressure (static):
siesta:                Solid            Molecule  Units
siesta:           0.00000018         -0.00000001  Ry/Bohr**3
siesta:           0.00001610         -0.00000049  eV/Ang**3
siesta:           0.02580242         -0.00078449  kBar
(Free)E+ p_basis*V_orbitals  =       -2123.756462
(Free)Eharris+ p_basis*V_orbitals  =       -2123.756462

siesta: Electric dipole (a.u.)  =    0.000053   -0.000153    0.000063
siesta: Electric dipole (Debye) =    0.000135   -0.000390    0.000160
>> End of run:  28-AUG-2019  12:29:36
Job completed
