
                           ***********************       
                           *  WELCOME TO SIESTA  *       
                           ***********************       

reinit: Reading from standard input
reinit: Dumped input in INPUT_TMP.42035
************************** Dump of input data file ****************************
# Siesta input file
         # -- SELF-CONSISTENT FIELD --
MeshCutoff                   300 Ry
PAO.EnergyShift              30 meV
XC.Functional                GGA
XC.Authors                   PBE
MaxSCFIterations             1000
         # -- MOLECULAR DYNAMICS --
MD.TypeOfRun                 Broyden
MD.NumCGsteps                100
MD.MaxForceTol               0.01 eV/Ang
         # -- BRILLOUIN ZONE --
%block KgridMonkhorstPack
  10   0   0   0.0
   0  10   0   0.0
   0   0  10   0.0
%endblock KgridMonkhorstPack
Diag.ParallelOverK           true                # Default: false
         # -- MATERIAL --
SystemLabel                  Gold
WriteCoorStep                true
WriteCoorXmol                true
%block ChemicalSpeciesLabel
 1  79  Au.gga
%endblock ChemicalSpeciesLabel
LatticeConstant              1.000 Ang
%block LatticeVectors
        4.478392    0.000000    0.000000
        0.000000    4.478392    0.000000
        0.000000    0.000000    4.478392
%endblock LatticeVectors
AtomicCoordinatesFormat      ScaledByLatticeVectors
%block AtomicCoordinatesAndAtomicSpecies
    0.00000000    0.00000000    0.00000000 1
    0.50000000    0.50000000    0.00000000 1
    0.50000000    0.00000000    0.50000000 1
    0.00000000    0.50000000    0.50000000 1
%endblock AtomicCoordinatesAndAtomicSpecies
************************** End of input data file *****************************

reinit: -----------------------------------------------------------------------
reinit: System Name: 
reinit: -----------------------------------------------------------------------
reinit: System Label: Gold
reinit: -----------------------------------------------------------------------
Siesta Version: siesta-4.1--736
Architecture  : Darwin
Compiler flags: gfortran -O3 -fPIC -ftree-vectorize
PP flags      : -DFC_HAVE_ABORT
Libraries     : 
SERIAL version

* Running in serial mode
>> Start of run:   9-JUN-2020  21:25:25

initatom: Reading input for the pseudopotentials and atomic orbitals ----------
Species number:   1 Atomic number:   79 Label: Au.gga

Ground state valence configuration:   6s01  5d10
Reading pseudopotential information in formatted form from Au.gga.psf

Valence configuration for pseudopotential generation:
6s( 1.00) rc: 2.60
6p( 0.00) rc: 2.77
5d(10.00) rc: 2.60
5f( 0.00) rc: 2.60
For Au.gga, standard SIESTA heuristics set lmxkb to 3
 (one more than the basis l, including polarization orbitals).
Use PS.lmax or PS.KBprojectors blocks to override.

<basis_specs>
===============================================================================
Au.gga               Z=  79    Mass=  196.97        Charge= 0.17977+309
Lmxo=2 Lmxkb= 3    BasisType=split      Semic=F
L=0  Nsemic=0  Cnfigmx=6
          n=1  nzeta=2  polorb=1
            splnorm:   0.15000    
               vcte:    0.0000    
               rinn:    0.0000    
               qcoe:    0.0000    
               qyuk:    0.0000    
               qwid:   0.10000E-01
                rcs:    0.0000      0.0000    
            lambdas:    1.0000      1.0000    
L=1  Nsemic=0  Cnfigmx=6
L=2  Nsemic=0  Cnfigmx=5
          n=1  nzeta=2  polorb=0
            splnorm:   0.15000    
               vcte:    0.0000    
               rinn:    0.0000    
               qcoe:    0.0000    
               qyuk:    0.0000    
               qwid:   0.10000E-01
                rcs:    0.0000      0.0000    
            lambdas:    1.0000      1.0000    
-------------------------------------------------------------------------------
L=0  Nkbl=1  erefs: 0.17977+309
L=1  Nkbl=1  erefs: 0.17977+309
L=2  Nkbl=1  erefs: 0.17977+309
L=3  Nkbl=1  erefs: 0.17977+309
===============================================================================
</basis_specs>

atom: Called for Au.gga                (Z =  79)

read_vps: Pseudopotential generation method:
read_vps: ATM3      Troullier-Martins                       
Total valence charge:   11.00000

read_vps: Pseudopotential includes a core correction:
read_vps: Pseudo-core for xc-correction

xc_check: Exchange-correlation functional:
xc_check: GGA Perdew, Burke & Ernzerhof 1996
V l=0 = -2*Zval/r beyond r=  2.8735
V l=1 = -2*Zval/r beyond r=  2.9833
V l=2 = -2*Zval/r beyond r=  2.8735
V l=3 = -2*Zval/r beyond r=  2.8735
All V_l potentials equal beyond r=  2.6994
This should be close to max(r_c) in ps generation
All pots = -2*Zval/r beyond r=  2.9833

VLOCAL1: 99.0% of the norm of Vloc inside      5.957 Ry
VLOCAL1: 99.9% of the norm of Vloc inside     13.576 Ry
atom: Maximum radius for 4*pi*r*r*local-pseudopot. charge    3.25614
atom: Maximum radius for r*vlocal+2*Zval:    2.87353
GHOST: No ghost state for L =  0
GHOST: No ghost state for L =  1
GHOST: No ghost state for L =  2
GHOST: No ghost state for L =  3

KBgen: Kleinman-Bylander projectors: 
   l= 0   rc=  3.175745   el= -0.302813   Ekb=  3.680006   kbcos=  0.263581
   l= 1   rc=  3.297098   el= -0.060585   Ekb=  2.095699   kbcos=  0.216804
   l= 2   rc=  2.946275   el= -0.592993   Ekb= -5.148257   kbcos= -0.712612
   l= 3   rc=  3.380565   el=  0.003083   Ekb= -1.676473   kbcos= -0.016808

KBgen: Total number of  Kleinman-Bylander projectors:   16
atom: -------------------------------------------------------------------------

atom: SANKEY-TYPE ORBITALS:
atom: Selected multiple-zeta basis: split     

SPLIT: Orbitals with angular momentum L= 0

SPLIT: Basis orbitals for state 6s

SPLIT: PAO cut-off radius determined from an
SPLIT: energy shift=  0.002205 Ry

   izeta = 1
                 lambda =    1.000000
                     rc =    9.075230
                 energy =   -0.300667
                kinetic =    0.253670
    potential(screened) =   -0.554336
       potential(ionic) =   -7.233467

   izeta = 2
                 rmatch =    7.067789
              splitnorm =    0.150000
                 energy =   -0.255669
                kinetic =    0.419191
    potential(screened) =   -0.674861
       potential(ionic) =   -7.922446

SPLIT: Orbitals with angular momentum L= 2

SPLIT: Basis orbitals for state 5d

SPLIT: PAO cut-off radius determined from an
SPLIT: energy shift=  0.002205 Ry

   izeta = 1
                 lambda =    1.000000
                     rc =    5.504393
                 energy =   -0.591029
                kinetic =    4.855858
    potential(screened) =   -5.446886
       potential(ionic) =  -16.084362

   izeta = 2
                 rmatch =    2.837834
              splitnorm =    0.150000
                 energy =   -0.313839
                kinetic =    6.710981
    potential(screened) =   -7.024819
       potential(ionic) =  -18.515857

POLgen: Perturbative polarization orbital with L=  1

POLgen: Polarization orbital for state 6s

   izeta = 1
                     rc =    9.075230
                 energy =   -0.061546
                kinetic =    0.445125
    potential(screened) =   -0.506672
       potential(ionic) =   -6.658945
atom: Total number of Sankey-type orbitals: 15

atm_pop: Valence configuration (for local Pseudopot. screening):
 6s( 1.00)                                                            
 6p( 0.00)                                                            
 5d(10.00)                                                            
Vna: chval, zval:   11.00000  11.00000

Vna:  Cut-off radius for the neutral-atom potential:   9.075230
comcore: Pseudo-core radius Rcore=  4.129038

atom: _________________________________________________________________________

prinput: Basis input ----------------------------------------------------------

PAO.BasisType split     

%block ChemicalSpeciesLabel
    1   79 Au.gga                  # Species index, atomic number, species label
%endblock ChemicalSpeciesLabel

%block PAO.Basis                 # Define Basis set
Au.gga                2                    # Species label, number of l-shells
 n=6   0   2 P   1                   # n, l, Nzeta, Polarization, NzetaPol
   9.075      7.068   
   1.000      1.000   
 n=5   2   2                         # n, l, Nzeta 
   5.504      2.838   
   1.000      1.000   
%endblock PAO.Basis

prinput: ----------------------------------------------------------------------

coor:   Atomic-coordinates input format  =     Fractional

siesta: Atomic coordinates (Bohr) and species
siesta:      0.00000   0.00000   0.00000  1        1
siesta:      4.23147   4.23147   0.00000  1        2
siesta:      4.23147   0.00000   4.23147  1        3
siesta:      0.00000   4.23147   4.23147  1        4

siesta: System type = bulk      

initatomlists: Number of atoms, orbitals, and projectors:      4    60    64

coxmol: Writing XMOL coordinates into file Gold.xyz                                                            

siesta: ******************** Simulation parameters ****************************
siesta:
siesta: The following are some of the parameters of the simulation.
siesta: A complete list of the parameters used, including default values,
siesta: can be found in file out.fdf
siesta:
redata: Spin configuration                          = none
redata: Number of spin components                   = 1
redata: Time-Reversal Symmetry                      = T
redata: Spin-spiral                                 = F
redata: Long output                                 =   F
redata: Number of Atomic Species                    =        1
redata: Charge density info will appear in .RHO file
redata: Write Mulliken Pop.                         = NO
redata: Mesh Cutoff                                 =   300.0000 Ry
redata: Net charge of the system                    =     0.0000 |e|
redata: Min. number of SCF Iter                     =        0
redata: Max. number of SCF Iter                     =     1000
redata: SCF mix quantity                            = Hamiltonian
redata: Mix DM or H after convergence               =   F
redata: Recompute H after scf cycle                 =   F
redata: Mix DM in first SCF step                    =   T
redata: Write Pulay info on disk                    =   F
redata: New DM Mixing Weight                        =     0.2500
redata: New DM Occupancy tolerance                  = 0.000000000001
redata: No kicks to SCF
redata: DM Mixing Weight for Kicks                  =     0.5000
redata: Require Harris convergence for SCF          =   F
redata: Harris energy tolerance for SCF             =     0.000100 eV
redata: Require DM convergence for SCF              =   T
redata: DM tolerance for SCF                        =     0.0001
redata: Require EDM convergence for SCF             =   F
redata: EDM tolerance for SCF                       =     0.001000 eV
redata: Require H convergence for SCF               =   T
redata: Hamiltonian tolerance for SCF               =     0.001000 eV
redata: Require (free) Energy convergence for SCF   =   F
redata: (free) Energy tolerance for SCF             =     0.000100 eV
redata: Using Saved Data (generic)                  =   F
redata: Use continuation files for DM               =   F
redata: Neglect nonoverlap interactions             =   F
redata: Method of Calculation                       = Diagonalization
redata: Divide and Conquer                          =   T
redata: Electronic Temperature                      =   299.9869 K
redata: Fix the spin of the system                  =   F
redata: Dynamics option                             = Broyden coord. optimization
redata: Variable cell                               =   F
redata: Maximum number of CG moves                  =      100
redata: Force tolerance                             =     0.0100 eV/Ang
mix.SCF: Pulay mixing                            = Pulay
mix.SCF:    Variant                              = stable
mix.SCF:    History steps                        = 2
mix.SCF:    Linear mixing weight                 =     0.250000
mix.SCF:    Mixing weight                        =     0.250000
mix.SCF:    SVD condition                        = 0.1000E-07
redata: ***********************************************************************

%block SCF.Mixers
  Pulay
%endblock SCF.Mixers

%block SCF.Mixer.Pulay
  # Mixing method
  method pulay
  variant stable

  # Mixing options
  weight 0.2500
  weight.linear 0.2500
  history 2
%endblock SCF.Mixer.Pulay

DM_history_depth set to one: no extrapolation allowed by default for geometry relaxation
Size of DM history Fstack: 1
Total number of electrons:    44.000000
Total ionic charge:    44.000000
k-point displ. along   1 input, could be:     0.00    0.50
k-point displ. along   2 input, could be:     0.00    0.50
k-point displ. along   3 input, could be:     0.00    0.50
 Kpoints in:          600 . Kpoints trimmed:          560

siesta: k-grid: Number of k-points =   560
siesta: k-grid: Cutoff (effective) =    22.392 Ang
siesta: k-grid: Supercell and displacements
siesta: k-grid:   10   0   0      0.000
siesta: k-grid:    0  10   0      0.000
siesta: k-grid:    0   0  10      0.000

superc: Internal auxiliary supercell:     5 x     5 x     5  =     125
superc: Number of atoms, orbitals, and projectors:    500   7500   8000


                     ====================================
                        Begin Broyden opt. move =      0
                     ====================================

outcoor: Atomic coordinates (fractional):                   
    0.00000000    0.00000000    0.00000000   1       1  Au.gga
    0.50000000    0.50000000    0.00000000   1       2  Au.gga
    0.50000000    0.00000000    0.50000000   1       3  Au.gga
    0.00000000    0.50000000    0.50000000   1       4  Au.gga

superc: Internal auxiliary supercell:     5 x     5 x     5  =     125
superc: Number of atoms, orbitals, and projectors:    500   7500   8000

outcell: Unit cell vectors (Ang):
        4.478392    0.000000    0.000000
        0.000000    4.478392    0.000000
        0.000000    0.000000    4.478392

outcell: Cell vector modules (Ang)   :    4.478392    4.478392    4.478392
outcell: Cell angles (23,13,12) (deg):     90.0000     90.0000     90.0000
outcell: Cell volume (Ang**3)        :     89.8186
<dSpData1D:S at geom step 0
  <sparsity:sparsity for geom step 0
    nrows_g=60 nrows=60 sparsity=35.4878 nnzs=127756, refcount: 7>
  <dData1D:(new from dSpData1D) n=127756, refcount: 1>
refcount: 1>
new_DM -- step:     1
Initializing Density Matrix...
DM filled with atomic data:
<dSpData2D:DM initialized from atoms
  <sparsity:sparsity for geom step 0
    nrows_g=60 nrows=60 sparsity=35.4878 nnzs=127756, refcount: 8>
  <dData2D:DM n=127756 m=1, refcount: 1>
refcount: 1>

No. of atoms with KB's overlaping orbs in proc 0. Max # of overlaps:      92     423
New grid distribution:   1
           1       1:   24    1:   24    1:   24

InitMesh: MESH =    48 x    48 x    48 =      110592
InitMesh: (bp) =    24 x    24 x    24 =       13824
InitMesh: Mesh cutoff (required, used) =   300.000   317.497 Ry
ExtMesh (bp) on 0 =   128 x   128 x   128 =     2097152
PhiOnMesh: Number of (b)points on node 0 =                13824
PhiOnMesh: nlist on node 0 =              1728268

stepf: Fermi-Dirac step function

siesta: Program's energy decomposition (eV):
siesta: Ebs     =      -418.798327
siesta: Eions   =      4361.312699
siesta: Ena     =       120.383361
siesta: Ekin    =      2523.076238
siesta: Enl     =     -1332.220483
siesta: Eso     =         0.000000
siesta: Eldau   =         0.000000
siesta: DEna    =        31.182031
siesta: DUscf   =         2.736967
siesta: DUext   =         0.000000
siesta: Exc     =      -845.359342
siesta: eta*DQ  =         0.000000
siesta: Emadel  =         0.000000
siesta: Emeta   =         0.000000
siesta: Emolmec =         0.000000
siesta: Ekinion =         0.000000
siesta: Eharris =     -3857.379785
siesta: Etot    =     -3861.513927
siesta: FreeEng =     -3861.516543

        iscf     Eharris(eV)        E_KS(eV)     FreeEng(eV)     dDmax    Ef(eV) dHmax(eV)
   scf:    1    -3857.379785    -3861.513927    -3861.516543  1.374344 -3.808452  2.488629
timer: Routine,Calls,Time,% = IterSCF        1      11.340  73.73
   scf:    2    -3863.046149    -3862.357272    -3862.359923  0.202432 -3.988950  1.207132
   scf:    3    -3862.726464    -3862.602910    -3862.606265  0.167985 -4.145508  0.033429
   scf:    4    -3862.602918    -3862.602939    -3862.606297  0.002766 -4.155012  0.019718
   scf:    5    -3862.602990    -3862.602965    -3862.606317  0.001245 -4.161607  0.012565
   scf:    6    -3862.603033    -3862.603000    -3862.606344  0.002492 -4.170915  0.002765
   scf:    7    -3862.603011    -3862.603006    -3862.606347  0.000682 -4.172380  0.001404
   scf:    8    -3862.603009    -3862.603007    -3862.606348  0.000324 -4.172905  0.000481
   scf:    9    -3862.603007    -3862.603007    -3862.606348  0.000028 -4.172871  0.000260

SCF Convergence by DM+H criterion
max |DM_out - DM_in|         :     0.0000283595
max |H_out - H_in|      (eV) :     0.0002604161
SCF cycle converged after 9 iterations

Using DM_out to compute the final energy and forces
No. of atoms with KB's overlaping orbs in proc 0. Max # of overlaps:      92     423

siesta: E_KS(eV) =            -3862.6030

siesta: E_KS - E_eggbox =     -3862.6030

siesta: Atomic forces (eV/Ang):
----------------------------------------
   Tot    0.000000    0.000000   -0.000000
----------------------------------------
   Max    0.000000
   Res    0.000000    sqrt( Sum f_i^2 / 3N )
----------------------------------------
   Max    0.000000    constrained

Stress-tensor-Voigt (kbar):        1.20        1.20        1.20        0.00        0.00       -0.00
(Free)E + p*V (eV/cell)    -3862.6734
Target enthalpy (eV/cell)    -3862.6063

Broyden_optim: max_history for broyden:   5
Broyden_optim: cycle on maxit: T
Broyden_optim: initial inverse jacobian:   1.0000

Broyden_optim: No of elements:     12

outcoor: Relaxed atomic coordinates (fractional):           
    0.00000000    0.00000000    0.00000000   1       1  Au.gga
    0.50000000    0.50000000    0.00000000   1       2  Au.gga
    0.50000000    0.00000000    0.50000000   1       3  Au.gga
    0.00000000    0.50000000    0.50000000   1       4  Au.gga

coxmol: Writing XMOL coordinates into file Gold.xyz                                                            

siesta: Program's energy decomposition (eV):
siesta: Ebs     =      -383.160432
siesta: Eions   =      4361.312699
siesta: Ena     =       120.383361
siesta: Ekin    =      2597.587523
siesta: Enl     =     -1378.676341
siesta: Eso     =         0.000000
siesta: Eldau   =         0.000000
siesta: DEna    =        15.184724
siesta: DUscf   =         0.684241
siesta: DUext   =         0.000000
siesta: Exc     =      -856.453816
siesta: eta*DQ  =         0.000000
siesta: Emadel  =         0.000000
siesta: Emeta   =         0.000000
siesta: Emolmec =         0.000000
siesta: Ekinion =         0.000000
siesta: Eharris =     -3862.603007
siesta: Etot    =     -3862.603007
siesta: FreeEng =     -3862.606348

siesta: Final energy (eV):
siesta:  Band Struct. =    -383.160432
siesta:       Kinetic =    2597.587523
siesta:       Hartree =     559.624378
siesta:       Eldau   =       0.000000
siesta:       Eso     =       0.000000
siesta:    Ext. field =       0.000000
siesta:   Exch.-corr. =    -856.453816
siesta:  Ion-electron =   -3291.663684
siesta:       Ion-ion =   -2871.697409
siesta:       Ekinion =       0.000000
siesta:         Total =   -3862.603007
siesta:         Fermi =      -4.172871

siesta: Stress tensor (static) (eV/Ang**3):
siesta:     0.000746    0.000000   -0.000000
siesta:     0.000000    0.000746   -0.000000
siesta:    -0.000000    0.000000    0.000746

siesta: Cell volume =         89.818607 Ang**3

siesta: Pressure (static):
siesta:                Solid            Molecule  Units
siesta:          -0.00000813         -0.00000813  Ry/Bohr**3
siesta:          -0.00074616         -0.00074616  eV/Ang**3
siesta:          -1.19549298         -1.19549298  kBar
(Free)E+ p_basis*V_orbitals  =       -3856.291305
(Free)Eharris+ p_basis*V_orbitals  =       -3856.291305

timer: Elapsed wall time (sec) =      93.772
timer: CPU execution times (sec):

Routine            Calls   Time/call    Tot.time        %
siesta                 1      92.948      92.948   100.00
Setup                  1       0.130       0.130     0.14
bands                  1       0.000       0.000     0.00
KSV_init               1       0.000       0.000     0.00
IterGeom               1      92.796      92.796    99.84
state_init             1       0.271       0.271     0.29
hsparse                1       0.074       0.074     0.08
overlap                1       0.161       0.161     0.17
Setup_H0               1       3.639       3.639     3.91
naefs                  2       0.000       0.001     0.00
MolMec                 2       0.000       0.000     0.00
kinefsm                2       0.088       0.175     0.19
nlefsm                 2       0.595       1.190     1.28
DHSCF_Init             1       2.816       2.816     3.03
DHSCF1                 1       0.083       0.083     0.09
INITMESH               1       0.000       0.000     0.00
DHSCF2                 1       2.733       2.733     2.94
REMESH                 1       0.507       0.507     0.55
REORD                 37       0.000       0.007     0.01
PHION                  1       1.850       1.850     1.99
COMM_BSC              25       0.000       0.005     0.01
POISON                12       0.006       0.068     0.07
fft                   24       0.002       0.050     0.05
IterSCF                9       9.222      82.999    89.30
setup_H               10       1.878      18.781    20.21
DHSCF                 11       2.190      24.095    25.92
DHSCF3                11       1.876      20.632    22.20
rhoofd                11       1.068      11.750    12.64
CellXC                11       0.116       1.274     1.37
cellXC                11       0.116       1.273     1.37
vmat                  11       0.684       7.521     8.09
compute_dm             9       7.132      64.184    69.05
diagon                 9       7.128      64.155    69.02
c-eigval            5040       0.003      16.476    17.73
c-buildHS           5040       0.003      13.926    14.98
cdiag              10080       0.001       8.200     8.82
cdiag1             10080       0.000       0.712     0.77
cdiag2             10080       0.000       1.702     1.83
cdiag3             10080       0.001       5.389     5.80
cdiag4             10080       0.000       0.317     0.34
c-eigvec            5040       0.004      19.718    21.21
c-buildD            5040       0.006      27.862    29.98
MIXER                  8       0.002       0.014     0.01
PostSCF                1       5.884       5.884     6.33
DHSCF4                 1       3.463       3.463     3.73
dfscf                  1       3.140       3.140     3.38
overfsm                1       0.018       0.018     0.02
state_analysis         1       0.001       0.001     0.00
siesta_move            1       0.000       0.000     0.00
Analysis               1       0.015       0.015     0.02
optical                1       0.000       0.000     0.00
  
>> End of run:   9-JUN-2020  21:26:59
Job completed
