
                           ***********************       
                           *  WELCOME TO SIESTA  *       
                           ***********************       

reinit: Reading from input.fdf

reinit: -----------------------------------------------------------------------
reinit: System Name: 
reinit: -----------------------------------------------------------------------
reinit: System Label: LiCoronene
reinit: -----------------------------------------------------------------------
Siesta Version: siesta-4.1--736
Architecture  : unknown
Compiler flags: gfortran -O3 -fPIC -ftree-vectorize -fopenmp
PP flags      : -DFC_HAVE_ABORT
Libraries     : -L/usr/local/opt/openblas/lib -lopenblas -fopenmp
SERIAL version

* Running in serial mode
* Running 4 OpenMP threads.
* Running 4 processes.
* OpenMP version 201511
* OpenMP runtime schedule DYNAMIC, chunks 1
** OpenMP runtime schedule DYNAMIC, chunks 32
>> Start of run:  23-AUG-2019   2:18:11

initatom: Reading input for the pseudopotentials and atomic orbitals ----------
Species number:   1 Atomic number:    3 Label: Li.gga
Species number:   2 Atomic number:   -6 Label: C.gga (floating PAOs)
Species number:   3 Atomic number:   -1 Label: H.gga (floating PAOs)

Ground state valence configuration:   2s01
Reading pseudopotential information in formatted form from Li.gga.psf

Valence configuration for pseudopotential generation:
2s( 1.00) rc: 2.26
2p( 0.00) rc: 2.26
3d( 0.00) rc: 2.59
4f( 0.00) rc: 2.59
Ground state valence configuration:   2s02  2p02
Reading pseudopotential information in formatted form from C.gga.psf

Valence configuration for pseudopotential generation:
2s( 2.00) rc: 1.54
2p( 2.00) rc: 1.54
3d( 0.00) rc: 1.54
4f( 0.00) rc: 1.54
Ground state valence configuration:   1s01
Reading pseudopotential information in formatted form from H.gga.psf

Valence configuration for pseudopotential generation:
1s( 1.00) rc: 1.31
2p( 0.00) rc: 1.31
3d( 0.00) rc: 0.37
4f( 0.00) rc: 1.31
For Li.gga, standard SIESTA heuristics set lmxkb to 2
 (one more than the basis l, including polarization orbitals).
Use PS.lmax or PS.KBprojectors blocks to override.

<basis_specs>
===============================================================================
Li.gga               Z=   3    Mass=  6.9400        Charge= 0.17977+309
Lmxo=0 Lmxkb= 2    BasisType=split      Semic=F
L=0  Nsemic=0  Cnfigmx=2
          n=1  nzeta=2  polorb=1
            splnorm:   0.15000    
               vcte:    0.0000    
               rinn:    0.0000    
               qcoe:    0.0000    
               qyuk:    0.0000    
               qwid:   0.10000E-01
                rcs:    0.0000      0.0000    
            lambdas:    1.0000      1.0000    
-------------------------------------------------------------------------------
L=0  Nkbl=1  erefs: 0.17977+309
L=1  Nkbl=1  erefs: 0.17977+309
L=2  Nkbl=1  erefs: 0.17977+309
===============================================================================
</basis_specs>

atom: Called for Li.gga                (Z =   3)

read_vps: Pseudopotential generation method:
read_vps: ATM3      Troullier-Martins                       
Total valence charge:    1.00000

read_vps: Pseudopotential includes a core correction:
read_vps: Pseudo-core for xc-correction

xc_check: Exchange-correlation functional:
xc_check: GGA Perdew, Burke & Ernzerhof 1996
V l=0 = -2*Zval/r beyond r=  2.4014
V l=1 = -2*Zval/r beyond r=  2.4014
V l=2 = -2*Zval/r beyond r=  2.5245
All V_l potentials equal beyond r=  2.5245
This should be close to max(r_c) in ps generation
All pots = -2*Zval/r beyond r=  2.5245

VLOCAL1: 99.0% of the norm of Vloc inside      6.811 Ry
VLOCAL1: 99.9% of the norm of Vloc inside     15.522 Ry
atom: Maximum radius for 4*pi*r*r*local-pseudopot. charge    2.93324
atom: Maximum radius for r*vlocal+2*Zval:    2.49317
GHOST: No ghost state for L =  0
GHOST: No ghost state for L =  1
GHOST: No ghost state for L =  2

KBgen: Kleinman-Bylander projectors: 
   l= 0   rc=  2.790140   el= -0.211227   Ekb=  1.846275   kbcos=  0.224637
   l= 1   rc=  2.860793   el= -0.080117   Ekb= -0.939901   kbcos= -0.153637
   l= 2   rc=  3.282601   el=  0.002001   Ekb= -0.184857   kbcos= -0.032514

KBgen: Total number of  Kleinman-Bylander projectors:    9
atom: -------------------------------------------------------------------------

atom: SANKEY-TYPE ORBITALS:
atom: Selected multiple-zeta basis: split     

SPLIT: Orbitals with angular momentum L= 0

SPLIT: Basis orbitals for state 2s

SPLIT: PAO cut-off radius determined from an
SPLIT: energy shift=  0.002205 Ry

   izeta = 1
                 lambda =    1.000000
                     rc =   10.499305
                 energy =   -0.209078
                kinetic =    0.149539
    potential(screened) =   -0.358617
       potential(ionic) =   -0.535122

   izeta = 2
                 rmatch =    8.383698
              splitnorm =    0.150000
                 energy =   -0.187449
                kinetic =    0.223123
    potential(screened) =   -0.410572
       potential(ionic) =   -0.587981

POLgen: Perturbative polarization orbital with L=  1

POLgen: Polarization orbital for state 2s

   izeta = 1
                     rc =   10.499305
                 energy =   -0.019499
                kinetic =    0.299862
    potential(screened) =   -0.319361
       potential(ionic) =   -0.500224
atom: Total number of Sankey-type orbitals:  5

atm_pop: Valence configuration (for local Pseudopot. screening):
 2s( 1.00)                                                            
Vna: chval, zval:    1.00000   1.00000

Vna:  Cut-off radius for the neutral-atom potential:  10.499305
comcore: Pseudo-core radius Rcore=  3.450946

atom: _________________________________________________________________________

<basis_specs>
===============================================================================
C.gga                Z=  -6    Mass= 0.10000E+41    Charge= 0.17977+309
Lmxo=1 Lmxkb=-1    BasisType=split      Semic=F
L=0  Nsemic=0  Cnfigmx=2
          n=1  nzeta=2  polorb=0
            splnorm:   0.15000    
               vcte:    0.0000    
               rinn:    0.0000    
               qcoe:    0.0000    
               qyuk:    0.0000    
               qwid:   0.10000E-01
                rcs:    0.0000      0.0000    
            lambdas:    1.0000      1.0000    
L=1  Nsemic=0  Cnfigmx=2
          n=1  nzeta=2  polorb=1
            splnorm:   0.15000    
               vcte:    0.0000    
               rinn:    0.0000    
               qcoe:    0.0000    
               qyuk:    0.0000    
               qwid:   0.10000E-01
                rcs:    0.0000      0.0000    
            lambdas:    1.0000      1.0000    
===============================================================================
</basis_specs>

atom: Called for C.gga                 (Z =  -6) ( Floating basis ) 

read_vps: Pseudopotential generation method:
read_vps: ATM3      Troullier-Martins                       
Total valence charge:    4.00000

read_vps: Pseudopotential includes a core correction:
read_vps: Pseudo-core for xc-correction

xc_check: Exchange-correlation functional:
xc_check: GGA Perdew, Burke & Ernzerhof 1996
atom: -------------------------------------------------------------------------

atom: SANKEY-TYPE ORBITALS:
atom: Selected multiple-zeta basis: split     

SPLIT: Orbitals with angular momentum L= 0

SPLIT: Basis orbitals for state 2s

SPLIT: PAO cut-off radius determined from an
SPLIT: energy shift=  0.002205 Ry

   izeta = 1
                 lambda =    1.000000
                     rc =    5.382558
                 energy =   -1.007983
                kinetic =    0.829025
    potential(screened) =   -1.837009
       potential(ionic) =   -5.376592

   izeta = 2
                 rmatch =    3.475094
              splitnorm =    0.150000
                 energy =   -0.876935
                kinetic =    1.279964
    potential(screened) =   -2.156899
       potential(ionic) =   -5.943761

SPLIT: Orbitals with angular momentum L= 1

SPLIT: Basis orbitals for state 2p

SPLIT: PAO cut-off radius determined from an
SPLIT: energy shift=  0.002205 Ry

   izeta = 1
                 lambda =    1.000000
                     rc =    6.740804
                 energy =   -0.386704
                kinetic =    2.327316
    potential(screened) =   -2.714020
       potential(ionic) =   -6.100339

   izeta = 2
                 rmatch =    3.792903
              splitnorm =    0.150000
                 energy =   -0.270625
                kinetic =    3.420974
    potential(screened) =   -3.691599
       potential(ionic) =   -7.453004

POLgen: Perturbative polarization orbital with L=  2

POLgen: Polarization orbital for state 2p

   izeta = 1
                     rc =    6.740804
                 energy =    0.975645
                kinetic =    2.058046
    potential(screened) =   -1.082401
       potential(ionic) =   -3.782952
atom: Total number of Sankey-type orbitals: 13

atom: _________________________________________________________________________

<basis_specs>
===============================================================================
H.gga                Z=  -1    Mass= 0.10000E+41    Charge= 0.17977+309
Lmxo=0 Lmxkb=-1    BasisType=split      Semic=F
L=0  Nsemic=0  Cnfigmx=1
          n=1  nzeta=2  polorb=1
            splnorm:   0.15000    
               vcte:    0.0000    
               rinn:    0.0000    
               qcoe:    0.0000    
               qyuk:    0.0000    
               qwid:   0.10000E-01
                rcs:    0.0000      0.0000    
            lambdas:    1.0000      1.0000    
===============================================================================
</basis_specs>

atom: Called for H.gga                 (Z =  -1) ( Floating basis ) 

read_vps: Pseudopotential generation method:
read_vps: ATM3      Troullier-Martins                       
Total valence charge:    1.00000

xc_check: Exchange-correlation functional:
xc_check: GGA Perdew, Burke & Ernzerhof 1996
atom: -------------------------------------------------------------------------

atom: SANKEY-TYPE ORBITALS:
atom: Selected multiple-zeta basis: split     

SPLIT: Orbitals with angular momentum L= 0

SPLIT: Basis orbitals for state 1s

SPLIT: PAO cut-off radius determined from an
SPLIT: energy shift=  0.002205 Ry

   izeta = 1
                 lambda =    1.000000
                     rc =    6.518340
                 energy =   -0.475328
                kinetic =    0.879188
    potential(screened) =   -1.354517
       potential(ionic) =   -1.873657

   izeta = 2
                 rmatch =    4.103729
              splitnorm =    0.150000
                 energy =   -0.382914
                kinetic =    1.427335
    potential(screened) =   -1.810249
       potential(ionic) =   -2.357086

POLgen: Perturbative polarization orbital with L=  1

POLgen: Polarization orbital for state 1s

   izeta = 1
                     rc =    6.518340
                 energy =    0.536347
                kinetic =    1.136516
    potential(screened) =   -0.600169
       potential(ionic) =   -1.065665
atom: Total number of Sankey-type orbitals:  5

atom: _________________________________________________________________________

prinput: Basis input ----------------------------------------------------------

PAO.BasisType split     

%block ChemicalSpeciesLabel
    1    3 Li.gga                  # Species index, atomic number, species label
    2   -6 C.gga                   # Species index, atomic number, species label
    3   -1 H.gga                   # Species index, atomic number, species label
%endblock ChemicalSpeciesLabel

%block PAO.Basis                 # Define Basis set
Li.gga                1                    # Species label, number of l-shells
 n=2   0   2 P   1                   # n, l, Nzeta, Polarization, NzetaPol
  10.499      8.384   
   1.000      1.000   
C.gga                 2                    # Species label, number of l-shells
 n=2   0   2                         # n, l, Nzeta 
   5.383      3.475   
   1.000      1.000   
 n=2   1   2 P   1                   # n, l, Nzeta, Polarization, NzetaPol
   6.741      3.793   
   1.000      1.000   
H.gga                 1                    # Species label, number of l-shells
 n=1   0   2 P   1                   # n, l, Nzeta, Polarization, NzetaPol
   6.518      4.104   
   1.000      1.000   
%endblock PAO.Basis

prinput: ----------------------------------------------------------------------

coor:   Atomic-coordinates input format  =     Cartesian coordinates
coor:                                          (in Angstroms)

siesta: Atomic coordinates (Bohr) and species
siesta:     18.02186  18.49962  22.33652  1        1
siesta:     20.39275  19.86581  18.92853  2        2
siesta:     20.39275  17.12916  18.92936  2        3
siesta:     18.02289  21.23419  18.92920  2        4
siesta:     22.76627  21.23603  18.93129  2        5
siesta:     18.02275  15.76080  18.93095  2        6
siesta:     15.65295  19.86595  18.92986  2        7
siesta:     22.76617  15.75874  18.93234  2        8
siesta:     18.02284  23.97491  18.93290  2        9
siesta:     25.07536  19.81673  18.91671  2       10
siesta:     22.69152  23.94579  18.91857  2       11
siesta:     25.07532  17.17846  18.91712  2       12
siesta:     15.65285  17.12930  18.93072  2       13
siesta:     20.40705  25.26475  18.91968  2       14
siesta:     18.02258  13.01979  18.93534  2       15
siesta:     13.27954  21.23621  18.93293  2       16
siesta:     22.69123  13.04867  18.92025  2       17
siesta:     15.63876  25.26499  18.91965  2       18
siesta:     13.27940  15.75911  18.93403  2       19
siesta:     20.40665  11.72973  18.92204  2       20
siesta:     13.35432  23.94590  18.91943  2       21
siesta:     15.63846  11.72976  18.92191  2       22
siesta:     10.97019  19.81710  18.91997  2       23
siesta:     13.35405  13.04914  18.92104  2       24
siesta:     10.97009  17.17882  18.92043  2       25
siesta:     26.89095  20.86018  18.89234  3       26
siesta:     24.50317  24.99642  18.89478  3       27
siesta:     26.89095  16.13502  18.89316  3       28
siesta:     20.41148  27.35887  18.89825  3       29
siesta:     24.50288  11.99821  18.89609  3       30
siesta:     15.63448  27.35914  18.89664  3       31
siesta:     20.41064   9.63550  18.90093  3       32
siesta:     11.54254  24.99626  18.89731  3       33
siesta:     15.63423   9.63550  18.89900  3       34
siesta:      9.15486  20.86105  18.89756  3       35
siesta:     11.54213  11.99919  18.89836  3       36
siesta:      9.15467  16.13502  18.89851  3       37

siesta: System type = molecule  

initatomlists: Number of atoms, orbitals, and projectors:     37   377     9

coxmol: Writing XMOL coordinates into file LiCoronene.xyz                                                      

siesta: ******************** Simulation parameters ****************************
siesta:
siesta: The following are some of the parameters of the simulation.
siesta: A complete list of the parameters used, including default values,
siesta: can be found in file out.fdf
siesta:
redata: Spin configuration                          = none
redata: Number of spin components                   = 1
redata: Time-Reversal Symmetry                      = T
redata: Spin-spiral                                 = F
redata: Long output                                 =   F
redata: Number of Atomic Species                    =        3
redata: Charge density info will appear in .RHO file
redata: Write Mulliken Pop.                         = NO
redata: Mesh Cutoff                                 =   300.0000 Ry
redata: Net charge of the system                    =     0.0000 |e|
redata: Min. number of SCF Iter                     =        0
redata: Max. number of SCF Iter                     =     1000
redata: SCF mix quantity                            = Hamiltonian
redata: Mix DM or H after convergence               =   F
redata: Recompute H after scf cycle                 =   F
redata: Mix DM in first SCF step                    =   T
redata: Write Pulay info on disk                    =   F
redata: New DM Mixing Weight                        =     0.2500
redata: New DM Occupancy tolerance                  = 0.000000000001
redata: No kicks to SCF
redata: DM Mixing Weight for Kicks                  =     0.5000
redata: Require Harris convergence for SCF          =   F
redata: Harris energy tolerance for SCF             =     0.000100 eV
redata: Require DM convergence for SCF              =   T
redata: DM tolerance for SCF                        =     0.0001
redata: Require EDM convergence for SCF             =   F
redata: EDM tolerance for SCF                       =     0.001000 eV
redata: Require H convergence for SCF               =   T
redata: Hamiltonian tolerance for SCF               =     0.001000 eV
redata: Require (free) Energy convergence for SCF   =   F
redata: (free) Energy tolerance for SCF             =     0.000100 eV
redata: Using Saved Data (generic)                  =   F
redata: Use continuation files for DM               =   F
redata: Neglect nonoverlap interactions             =   F
redata: Method of Calculation                       = Diagonalization
redata: Divide and Conquer                          =   T
redata: Electronic Temperature                      =   299.9869 K
redata: Fix the spin of the system                  =   F
redata: Dynamics option                             = Single-point calculation
mix.SCF: Pulay mixing                            = Pulay
mix.SCF:    Variant                              = stable
mix.SCF:    History steps                        = 2
mix.SCF:    Linear mixing weight                 =     0.250000
mix.SCF:    Mixing weight                        =     0.250000
mix.SCF:    SVD condition                        = 0.1000E-07
redata: ***********************************************************************

%block SCF.Mixers
  Pulay
%endblock SCF.Mixers

%block SCF.Mixer.Pulay
  # Mixing method
  method pulay
  variant stable

  # Mixing options
  weight 0.2500
  weight.linear 0.2500
  history 2
%endblock SCF.Mixer.Pulay

DM_history_depth set to one: no extrapolation allowed by default for geometry relaxation
Size of DM history Fstack: 1
Total number of electrons:     1.000000
Total ionic charge:     1.000000
 Kpoints in:            1 . Kpoints trimmed:            1

siesta: k-grid: Number of k-points =     1
siesta: k-grid: Cutoff (effective) =    10.000 Ang
siesta: k-grid: Supercell and displacements
siesta: k-grid:    1   0   0      0.000
siesta: k-grid:    0   1   0      0.000
siesta: k-grid:    0   0   1      0.000


                     ====================================
                        Single-point calculation
                     ====================================

outcoor: Atomic coordinates (Ang):                          
    9.53675545    9.78957093   11.81997317   1       1  Li.gga
   10.79137319   10.51253067   10.01654360   2       2  C.gga
   10.79137193    9.06435809   10.01698394   2       3  C.gga
    9.53729715   11.23664439   10.01689688   2       4  C.gga
   12.04738405   11.23761996   10.01800261   2       5  C.gga
    9.53722392    8.34025159   10.01782596   2       6  C.gga
    8.28318322   10.51260241   10.01724742   2       7  C.gga
   12.04733408    8.33916409   10.01856036   2       8  C.gga
    9.53727377   12.68697132   10.01885455   2       9  C.gga
   13.26930362   10.48656011   10.01028570   2      10  C.gga
   12.00782946   12.67156044   10.01126973   2      11  C.gga
   13.26928369    9.09044460   10.01050296   2      12  C.gga
    8.28312864    9.06443015   10.01770095   2      13  C.gga
   10.79894230   13.36952579   10.01185810   2      14  C.gga
    9.53713366    6.88977412   10.02014617   2      15  C.gga
    7.02722506   11.23771452   10.01887222   2      16  C.gga
   12.00767886    6.90505539   10.01215981   2      17  C.gga
    8.27567359   13.36964962   10.01184252   2      18  C.gga
    7.02715558    8.33935762   10.01945297   2      19  C.gga
   10.79873013    6.20710275   10.01310772   2      20  C.gga
    7.06679904   12.67161972   10.01172787   2      21  C.gga
    8.27551131    6.20711761   10.01303858   2      22  C.gga
    5.80517439   10.48675285   10.01201405   2      23  C.gga
    7.06665365    6.90530330   10.01257743   2      24  C.gga
    5.80511981    9.09063852   10.01225399   2      25  C.gga
   14.23007201   11.03872769    9.99739144   3      26  H.gga
   12.96651345   13.22752905    9.99868557   3      27  H.gga
   14.23007220    8.53828320    9.99782414   3      28  H.gga
   10.80128690   14.47768483   10.00052081   3      29  H.gga
   12.96636148    6.34917525    9.99937480   3      30  H.gga
    8.27340739   14.47782821    9.99966474   3      31  H.gga
   10.80083926    5.09888376   10.00194007   3      32  H.gga
    6.10804631   13.22744806   10.00002318   3      33  H.gga
    8.27327470    5.09888613   10.00091500   3      34  H.gga
    4.84453895   11.03918903   10.00015243   3      35  H.gga
    6.10782800    6.34969788   10.00057521   3      36  H.gga
    4.84444056    8.53828395   10.00065459   3      37  H.gga

outcell: Unit cell vectors (Ang):
       20.000000    0.000000    0.000000
        0.000000   20.000000    0.000000
        0.000000    0.000000   20.000000

outcell: Cell vector modules (Ang)   :   20.000000   20.000000   20.000000
outcell: Cell angles (23,13,12) (deg):     90.0000     90.0000     90.0000
outcell: Cell volume (Ang**3)        :   8000.0000
<dSpData1D:S at geom step 0
  <sparsity:sparsity for geom step 0
    nrows_g=377 nrows=377 sparsity=.8262 nnzs=117421, refcount: 7>
  <dData1D:(new from dSpData1D) n=117421, refcount: 1>
refcount: 1>
new_DM -- step:     1
Initializing Density Matrix...
DM filled with atomic data:
<dSpData2D:DM initialized from atoms
  <sparsity:sparsity for geom step 0
    nrows_g=377 nrows=377 sparsity=.8262 nnzs=117421, refcount: 8>
  <dData2D:DM n=117421 m=1, refcount: 1>
refcount: 1>

No. of atoms with KB's overlaping orbs in proc 0. Max # of overlaps:       1     289
New grid distribution:   1
           1       1:  108    1:  108    1:  108

InitMesh: MESH =   216 x   216 x   216 =    10077696
InitMesh: (bp) =   108 x   108 x   108 =     1259712
InitMesh: Mesh cutoff (required, used) =   300.000   322.366 Ry
ExtMesh (bp) on 0 =   232 x   232 x   232 =    12487168
PhiOnMesh: Number of (b)points on node 0 =              1259712
PhiOnMesh: nlist on node 0 =              9016010

stepf: Fermi-Dirac step function

siesta: Program's energy decomposition (eV):
siesta: Ebs     =        -2.806510
siesta: Eions   =         9.635204
siesta: Ena     =         4.417536
siesta: Ekin    =         1.999640
siesta: Enl     =         1.158162
siesta: Eso     =         0.000000
siesta: Eldau   =         0.000000
siesta: DEna    =         0.021329
siesta: DUscf   =         0.000114
siesta: DUext   =         0.000000
siesta: Exc     =       -11.051961
siesta: eta*DQ  =         0.000000
siesta: Emadel  =         0.000000
siesta: Emeta   =         0.000000
siesta: Emolmec =         0.000000
siesta: Ekinion =         0.000000
siesta: Eharris =       -13.097555
siesta: Etot    =       -13.090386
siesta: FreeEng =       -13.126223

        iscf     Eharris(eV)        E_KS(eV)     FreeEng(eV)     dDmax    Ef(eV) dHmax(eV)
   scf:    1      -13.097555      -13.090386      -13.126223  0.021279 -2.787605  0.272922
timer: Routine,Calls,Time,% = IterSCF        1      16.065  54.95
   scf:    2      -13.090412      -13.090399      -13.126236  0.001765 -2.792333  0.207811
   scf:    3      -13.090438      -13.090418      -13.126255  0.005711 -2.807338  0.001053
   scf:    4      -13.090418      -13.090418      -13.126255  0.000080 -2.807242  0.000746

SCF Convergence by DM+H criterion
max |DM_out - DM_in|         :     0.0000795627
max |H_out - H_in|      (eV) :     0.0007457962
SCF cycle converged after 4 iterations

Using DM_out to compute the final energy and forces
No. of atoms with KB's overlaping orbs in proc 0. Max # of overlaps:       1     289

siesta: E_KS(eV) =              -13.0904

siesta: E_KS - E_eggbox =       -13.0904

siesta: Atomic forces (eV/Ang):
----------------------------------------
   Tot    0.000002   -0.000003   -0.000007
----------------------------------------
   Max    0.000561
   Res    0.000084    sqrt( Sum f_i^2 / 3N )
----------------------------------------
   Max    0.000561    constrained

Stress-tensor-Voigt (kbar):        0.00        0.00        0.00       -0.00       -0.00        0.00
(Free)E + p*V (eV/cell)      -13.1268
Target enthalpy (eV/cell)      -13.1263

coxmol: Writing XMOL coordinates into file LiCoronene.xyz                                                      

siesta: Program's energy decomposition (eV):
siesta: Ebs     =        -2.806878
siesta: Eions   =         9.635204
siesta: Ena     =         4.417536
siesta: Ekin    =         1.999229
siesta: Enl     =         1.158463
siesta: Eso     =         0.000000
siesta: Eldau   =         0.000000
siesta: DEna    =         0.021001
siesta: DUscf   =         0.000116
siesta: DUext   =         0.000000
siesta: Exc     =       -11.051558
siesta: eta*DQ  =         0.000000
siesta: Emadel  =         0.000000
siesta: Emeta   =         0.000000
siesta: Emolmec =         0.000000
siesta: Ekinion =         0.000000
siesta: Eharris =       -13.090418
siesta: Etot    =       -13.090418
siesta: FreeEng =       -13.126255

siesta: Final energy (eV):
siesta:  Band Struct. =      -2.806878
siesta:       Kinetic =       1.999229
siesta:       Hartree =       2.210501
siesta:       Eldau   =       0.000000
siesta:       Eso     =       0.000000
siesta:    Ext. field =       0.000000
siesta:   Exch.-corr. =     -11.051558
siesta:  Ion-electron =      -5.244875
siesta:       Ion-ion =      -1.003715
siesta:       Ekinion =       0.000000
siesta:         Total =     -13.090418
siesta:         Fermi =      -2.807242

siesta: Stress tensor (static) (eV/Ang**3):
siesta:     0.000000   -0.000000    0.000000
siesta:    -0.000000    0.000000   -0.000000
siesta:     0.000000   -0.000000    0.000000

siesta: Cell volume =       8000.000000 Ang**3

siesta: Pressure (static):
siesta:                Solid            Molecule  Units
siesta:          -0.00000000          0.00000000  Ry/Bohr**3
siesta:          -0.00000007          0.00000010  eV/Ang**3
siesta:          -0.00011347          0.00015708  kBar
(Free)E+ p_basis*V_orbitals  =          11.003263
(Free)Eharris+ p_basis*V_orbitals  =          11.003263

siesta: Electric dipole (a.u.)  =    0.000009   -0.000002    0.027028
siesta: Electric dipole (Debye) =    0.000023   -0.000005    0.068697

timer: Elapsed wall time (sec) =      71.347
timer: CPU execution times (sec):

Routine            Calls   Time/call    Tot.time        %
siesta                 1      71.347      71.347   100.00
Setup                  1       0.263       0.263     0.37
bands                  1       0.000       0.000     0.00
KSV_init               1       0.000       0.000     0.00
IterGeom               1      71.034      71.034    99.56
state_init             1       0.266       0.266     0.37
hsparse                1       0.017       0.017     0.02
overlap                1       0.239       0.239     0.33
Setup_H0               1      12.641      12.641    17.72
naefs                  2       0.000       0.000     0.00
MolMec                 2       0.000       0.000     0.00
kinefsm                2       0.128       0.255     0.36
nlefsm                 2       0.088       0.175     0.25
DHSCF_Init             1      12.264      12.264    17.19
DHSCF1                 1       0.267       0.267     0.37
INITMESH               1       0.000       0.000     0.00
DHSCF2                 1      11.996      11.996    16.81
REMESH                 1       1.246       1.246     1.75
REORD                 27       0.019       0.508     0.71
PHION                  1       8.611       8.611    12.07
COMM_BSC              15       0.019       0.279     0.39
POISON                 7       0.907       6.348     8.90
fft                   14       0.348       4.875     6.83
IterSCF                4      10.059      40.235    56.39
setup_H                5       7.948      39.742    55.70
DHSCF                  6       9.578      57.470    80.55
DHSCF3                 6       7.751      46.509    65.19
rhoofd                 6       2.847      17.080    23.94
CellXC                 6       2.149      12.896    18.07
cellXC                 6       2.149      12.896    18.07
vmat                   6       1.658       9.946    13.94
compute_dm             4       0.118       0.473     0.66
diagon                 4       0.117       0.468     0.66
r-eigvec               4       0.115       0.461     0.65
r-buildHS              4       0.000       0.001     0.00
rdiag                  4       0.115       0.460     0.64
rdiag1                 4       0.009       0.034     0.05
rdiag2                 4       0.018       0.074     0.10
rdiag3                 4       0.072       0.289     0.41
rdiag4                 4       0.015       0.061     0.09
r-buildD               4       0.001       0.005     0.01
MIXER                  3       0.001       0.004     0.01
PostSCF                1      17.887      17.887    25.07
DHSCF4                 1      10.961      10.961    15.36
dfscf                  1      10.281      10.281    14.41
overfsm                1       0.037       0.037     0.05
state_analysis         1       0.001       0.001     0.00
siesta_move            1       0.000       0.000     0.00
Analysis               1       0.006       0.006     0.01
optical                1       0.000       0.000     0.00
  
>> End of run:  23-AUG-2019   2:19:23
Job completed
