<pdos>
<nspin>1</nspin>
<norbitals>26</norbitals>
<fermi_energy units="eV"> -0.475082678E+01</fermi_energy>
<energy_values units="eV">
 -0.999998931E+01
 -0.996654453E+01
 -0.993309975E+01
 -0.989965497E+01
 -0.986621019E+01
 -0.983276541E+01
 -0.979932063E+01
 -0.976587585E+01
 -0.973243107E+01
 -0.969898629E+01
 -0.966554151E+01
 -0.963209673E+01
 -0.959865195E+01
 -0.956520717E+01
 -0.953176239E+01
 -0.949831761E+01
 -0.946487283E+01
 -0.943142805E+01
 -0.939798327E+01
 -0.936453849E+01
 -0.933109371E+01
 -0.929764893E+01
 -0.926420415E+01
 -0.923075937E+01
 -0.919731458E+01
 -0.916386980E+01
 -0.913042502E+01
 -0.909698024E+01
 -0.906353546E+01
 -0.903009068E+01
 -0.899664590E+01
 -0.896320112E+01
 -0.892975634E+01
 -0.889631156E+01
 -0.886286678E+01
 -0.882942200E+01
 -0.879597722E+01
 -0.876253244E+01
 -0.872908766E+01
 -0.869564288E+01
 -0.866219810E+01
 -0.862875332E+01
 -0.859530854E+01
 -0.856186376E+01
 -0.852841898E+01
 -0.849497420E+01
 -0.846152942E+01
 -0.842808464E+01
 -0.839463986E+01
 -0.836119508E+01
 -0.832775030E+01
 -0.829430552E+01
 -0.826086074E+01
 -0.822741596E+01
 -0.819397118E+01
 -0.816052640E+01
 -0.812708162E+01
 -0.809363683E+01
 -0.806019205E+01
 -0.802674727E+01
 -0.799330249E+01
 -0.795985771E+01
 -0.792641293E+01
 -0.789296815E+01
 -0.785952337E+01
 -0.782607859E+01
 -0.779263381E+01
 -0.775918903E+01
 -0.772574425E+01
 -0.769229947E+01
 -0.765885469E+01
 -0.762540991E+01
 -0.759196513E+01
 -0.755852035E+01
 -0.752507557E+01
 -0.749163079E+01
 -0.745818601E+01
 -0.742474123E+01
 -0.739129645E+01
 -0.735785167E+01
 -0.732440689E+01
 -0.729096211E+01
 -0.725751733E+01
 -0.722407255E+01
 -0.719062777E+01
 -0.715718299E+01
 -0.712373821E+01
 -0.709029343E+01
 -0.705684865E+01
 -0.702340386E+01
 -0.698995908E+01
 -0.695651430E+01
 -0.692306952E+01
 -0.688962474E+01
 -0.685617996E+01
 -0.682273518E+01
 -0.678929040E+01
 -0.675584562E+01
 -0.672240084E+01
 -0.668895606E+01
 -0.665551128E+01
 -0.662206650E+01
 -0.658862172E+01
 -0.655517694E+01
 -0.652173216E+01
 -0.648828738E+01
 -0.645484260E+01
 -0.642139782E+01
 -0.638795304E+01
 -0.635450826E+01
 -0.632106348E+01
 -0.628761870E+01
 -0.625417392E+01
 -0.622072914E+01
 -0.618728436E+01
 -0.615383958E+01
 -0.612039480E+01
 -0.608695002E+01
 -0.605350524E+01
 -0.602006046E+01
 -0.598661568E+01
 -0.595317090E+01
 -0.591972611E+01
 -0.588628133E+01
 -0.585283655E+01
 -0.581939177E+01
 -0.578594699E+01
 -0.575250221E+01
 -0.571905743E+01
 -0.568561265E+01
 -0.565216787E+01
 -0.561872309E+01
 -0.558527831E+01
 -0.555183353E+01
 -0.551838875E+01
 -0.548494397E+01
 -0.545149919E+01
 -0.541805441E+01
 -0.538460963E+01
 -0.535116485E+01
 -0.531772007E+01
 -0.528427529E+01
 -0.525083051E+01
 -0.521738573E+01
 -0.518394095E+01
 -0.515049617E+01
 -0.511705139E+01
 -0.508360661E+01
 -0.505016183E+01
 -0.501671705E+01
 -0.498327227E+01
 -0.494982749E+01
 -0.491638271E+01
 -0.488293793E+01
 -0.484949314E+01
 -0.481604836E+01
 -0.478260358E+01
 -0.474915880E+01
 -0.471571402E+01
 -0.468226924E+01
 -0.464882446E+01
 -0.461537968E+01
 -0.458193490E+01
 -0.454849012E+01
 -0.451504534E+01
 -0.448160056E+01
 -0.444815578E+01
 -0.441471100E+01
 -0.438126622E+01
 -0.434782144E+01
 -0.431437666E+01
 -0.428093188E+01
 -0.424748710E+01
 -0.421404232E+01
 -0.418059754E+01
 -0.414715276E+01
 -0.411370798E+01
 -0.408026320E+01
 -0.404681842E+01
 -0.401337364E+01
 -0.397992886E+01
 -0.394648408E+01
 -0.391303930E+01
 -0.387959452E+01
 -0.384614974E+01
 -0.381270496E+01
 -0.377926017E+01
 -0.374581539E+01
 -0.371237061E+01
 -0.367892583E+01
 -0.364548105E+01
 -0.361203627E+01
 -0.357859149E+01
 -0.354514671E+01
 -0.351170193E+01
 -0.347825715E+01
 -0.344481237E+01
 -0.341136759E+01
 -0.337792281E+01
 -0.334447803E+01
 -0.331103325E+01
 -0.327758847E+01
 -0.324414369E+01
 -0.321069891E+01
 -0.317725413E+01
 -0.314380935E+01
 -0.311036457E+01
 -0.307691979E+01
 -0.304347501E+01
 -0.301003023E+01
 -0.297658545E+01
 -0.294314067E+01
 -0.290969589E+01
 -0.287625111E+01
 -0.284280633E+01
 -0.280936155E+01
 -0.277591677E+01
 -0.274247199E+01
 -0.270902721E+01
 -0.267558242E+01
 -0.264213764E+01
 -0.260869286E+01
 -0.257524808E+01
 -0.254180330E+01
 -0.250835852E+01
 -0.247491374E+01
 -0.244146896E+01
 -0.240802418E+01
 -0.237457940E+01
 -0.234113462E+01
 -0.230768984E+01
 -0.227424506E+01
 -0.224080028E+01
 -0.220735550E+01
 -0.217391072E+01
 -0.214046594E+01
 -0.210702116E+01
 -0.207357638E+01
 -0.204013160E+01
 -0.200668682E+01
 -0.197324204E+01
 -0.193979726E+01
 -0.190635248E+01
 -0.187290770E+01
 -0.183946292E+01
 -0.180601814E+01
 -0.177257336E+01
 -0.173912858E+01
 -0.170568380E+01
 -0.167223902E+01
 -0.163879424E+01
 -0.160534945E+01
 -0.157190467E+01
 -0.153845989E+01
 -0.150501511E+01
 -0.147157033E+01
 -0.143812555E+01
 -0.140468077E+01
 -0.137123599E+01
 -0.133779121E+01
 -0.130434643E+01
 -0.127090165E+01
 -0.123745687E+01
 -0.120401209E+01
 -0.117056731E+01
 -0.113712253E+01
 -0.110367775E+01
 -0.107023297E+01
 -0.103678819E+01
 -0.100334341E+01
 -0.969898629E+00
 -0.936453849E+00
 -0.903009068E+00
 -0.869564288E+00
 -0.836119508E+00
 -0.802674727E+00
 -0.769229947E+00
 -0.735785167E+00
 -0.702340386E+00
 -0.668895606E+00
 -0.635450826E+00
 -0.602006046E+00
 -0.568561265E+00
 -0.535116485E+00
 -0.501671705E+00
 -0.468226924E+00
 -0.434782144E+00
 -0.401337364E+00
 -0.367892583E+00
 -0.334447803E+00
 -0.301003023E+00
 -0.267558242E+00
 -0.234113462E+00
 -0.200668682E+00
 -0.167223902E+00
 -0.133779121E+00
 -0.100334341E+00
 -0.668895606E-01
 -0.334447803E-01
  0.000000000E+00
</energy_values>
<orbital 
 index="                        1" 
 atom_index="                        1" 
 species="C.gga" 
 Z="                        6" 
 position="   2.716154   0.000000  18.897269" 
 n="                        2" 
 l="                        0" 
 m="                        0" 
 z="                        1" 
 P="false" 
>
<data>
 -0.297331307E-02
 -0.291534044E-02
 -0.285219328E-02
 -0.278838054E-02
 -0.273229457E-02
 -0.266589774E-02
 -0.261149773E-02
 -0.254870689E-02
 -0.249003657E-02
 -0.243434091E-02
 -0.237194792E-02
 -0.231886197E-02
 -0.225902673E-02
 -0.220268136E-02
 -0.214880855E-02
 -0.208967020E-02
 -0.203733247E-02
 -0.198154702E-02
 -0.192606791E-02
 -0.187457969E-02
 -0.181899827E-02
 -0.176657345E-02
 -0.171509487E-02
 -0.166124676E-02
 -0.161062814E-02
 -0.155971005E-02
 -0.150780421E-02
 -0.145834887E-02
 -0.140863387E-02
 -0.135849752E-02
 -0.131005641E-02
 -0.126182874E-02
 -0.121337209E-02
 -0.116596753E-02
 -0.111921406E-02
 -0.107249485E-02
 -0.102629835E-02
 -0.980837013E-03
 -0.935793030E-03
 -0.891102111E-03
 -0.846927869E-03
 -0.803302319E-03
 -0.760155127E-03
 -0.717459636E-03
 -0.675233069E-03
 -0.633485670E-03
 -0.592210837E-03
 -0.551397806E-03
 -0.511037643E-03
 -0.471122259E-03
 -0.431642574E-03
 -0.392588048E-03
 -0.353946708E-03
 -0.315705334E-03
 -0.277849584E-03
 -0.240363920E-03
 -0.203231747E-03
 -0.166435437E-03
 -0.129956501E-03
 -0.937835975E-04
 -0.581910160E-04
 -0.262481346E-04
 -0.650859355E-05
 -0.665539638E-06
 -0.229346841E-07
 -0.236131981E-09
 -0.365431829E-12
 -0.172452737E-23
 -0.175699883E-23
 -0.179416524E-23
 -0.183307853E-23
 -0.187125843E-23
 -0.191656519E-23
 -0.196005923E-23
 -0.200876147E-23
 -0.206234742E-23
 -0.211552680E-23
 -0.217925247E-23
 -0.224393547E-23
 -0.231679174E-23
 -0.240069649E-23
 -0.248911484E-23
 -0.259792996E-23
 -0.271998324E-23
 -0.286898430E-23
 -0.306244549E-23
 -0.332337196E-23
 -0.376895581E-23
 -0.442750772E-23
 -0.460790374E-23
 -0.399628736E-23
 -0.341807439E-23
 -0.308654005E-23
 -0.285419563E-23
 -0.267320310E-23
 -0.253371116E-23
 -0.240005497E-23
 -0.229564264E-23
 -0.220065601E-23
 -0.210571799E-23
 -0.203422797E-23
 -0.195584010E-23
 -0.188763017E-23
 -0.182855830E-23
 -0.176284731E-23
 -0.171179476E-23
 -0.165649078E-23
 -0.160460852E-23
 -0.156019060E-23
 -0.150954621E-23
 -0.146844975E-23
 -0.142495626E-23
 -0.138211145E-23
 -0.134553693E-23
 -0.130365577E-23
 -0.126804158E-23
 -0.123172709E-23
 -0.119418143E-23
 -0.116213458E-23
 -0.112600078E-23
 -0.109330995E-23
 -0.106165929E-23
 -0.102747452E-23
 -0.997781528E-24
 -0.965781824E-24
 -0.934481974E-24
 -0.905668898E-24
 -0.874095866E-24
 -0.845108602E-24
 -0.816126044E-24
 -0.785720565E-24
 -0.757903733E-24
 -0.728703793E-24
 -0.699535762E-24
 -0.672043697E-24
 -0.642946341E-24
 -0.614636526E-24
 -0.587064168E-24
 -0.558222808E-24
 -0.530318453E-24
 -0.502585007E-24
 -0.473956836E-24
 -0.446100507E-24
 -0.418194180E-24
 -0.389636064E-24
 -0.361600270E-24
 -0.333509285E-24
 -0.304905687E-24
 -0.276551760E-24
 -0.248167500E-24
 -0.219385050E-24
 -0.190656395E-24
 -0.161922368E-24
 -0.132845067E-24
 -0.103638340E-24
 -0.744635695E-25
 -0.457620962E-25
 -0.237197684E-25
 -0.233542384E-25
 -0.452480704E-25
 -0.745611192E-25
 -0.104803397E-24
 -0.135417917E-24
 -0.166230713E-24
 -0.197074645E-24
 -0.228247399E-24
 -0.259801627E-24
 -0.291329932E-24
 -0.323101234E-24
 -0.355452133E-24
 -0.387726196E-24
 -0.420082670E-24
 -0.453273074E-24
 -0.486364922E-24
 -0.519331800E-24
 -0.553434571E-24
 -0.587321659E-24
 -0.620908684E-24
 -0.656018920E-24
 -0.690545352E-24
 -0.724823458E-24
 -0.761069251E-24
 -0.795924284E-24
 -0.831119131E-24
 -0.868394681E-24
 -0.903062161E-24
 -0.939641379E-24
 -0.977246592E-24
 -0.101148436E-23
 -0.104998185E-23
 -0.108614606E-23
 -0.112057761E-23
 -0.116019744E-23
 -0.119253045E-23
 -0.122872834E-23
 -0.126533001E-23
 -0.129279414E-23
 -0.133008804E-23
 -0.135581779E-23
 -0.137890378E-23
 -0.140703685E-23
 -0.141300273E-23
 -0.142285018E-23
 -0.141325079E-23
 -0.137748849E-23
 -0.131600263E-23
 -0.116961173E-23
 -0.876253182E-24
 -0.391769982E-24
 -0.172844086E-24
 -0.346501167E-24
 -0.487202097E-24
 -0.556023631E-24
 -0.578267074E-24
 -0.597393616E-24
 -0.600570604E-24
 -0.601259208E-24
 -0.601049296E-24
 -0.590865712E-24
 -0.589992882E-24
 -0.574207645E-24
 -0.571332798E-24
 -0.554336972E-24
 -0.547412337E-24
 -0.532249994E-24
 -0.520114571E-24
 -0.508011165E-24
 -0.490883517E-24
 -0.481501007E-24
 -0.460622826E-24
 -0.452724154E-24
 -0.429798118E-24
 -0.421862089E-24
 -0.398539745E-24
 -0.389186391E-24
 -0.366764123E-24
 -0.355097426E-24
 -0.334286641E-24
 -0.319852193E-24
 -0.300989680E-24
 -0.283768252E-24
 -0.266789474E-24
 -0.247023521E-24
 -0.231651331E-24
 -0.209691970E-24
 -0.195514488E-24
 -0.171816817E-24
 -0.158488491E-24
 -0.133417868E-24
 -0.120556606E-24
 -0.944826410E-25
 -0.818252319E-25
 -0.550336467E-25
 -0.423635131E-25
 -0.149738772E-25
 -0.210217866E-26
  0.256409189E-25
  0.388106904E-25
  0.668238225E-25
  0.803631690E-25
  0.108567117E-24
  0.122615906E-24
  0.150926984E-24
  0.165501334E-24
  0.193779893E-24
  0.209027788E-24
  0.237214427E-24
  0.253290409E-24
  0.281188117E-24
  0.298136590E-24
  0.325560989E-24
  0.343726635E-24
  0.370632577E-24
  0.390046648E-24
  0.416027185E-24
  0.436902697E-24
  0.462076292E-24
  0.484614164E-24
  0.508643827E-24
  0.532696998E-24
  0.555864558E-24
  0.581643899E-24
  0.603806468E-24
  0.630696858E-24
  0.652359879E-24
  0.680549266E-24
  0.702038946E-24
  0.730562316E-24
  0.752366471E-24
  0.781261343E-24
  0.803864536E-24
  0.832065919E-24
  0.855867571E-24
  0.883773521E-24
  0.909069650E-24
  0.935848407E-24
  0.962509131E-24
  0.989153490E-24
  0.101689557E-23
  0.104307070E-23
</data>
</orbital>
<orbital 
 index="                        2" 
 atom_index="                        1" 
 species="C.gga" 
 Z="                        6" 
 position="   2.716154   0.000000  18.897269" 
 n="                        2" 
 l="                        0" 
 m="                        0" 
 z="                        2" 
 P="false" 
>
<data>
  0.614854532E-02
  0.602119915E-02
  0.588270983E-02
  0.574356010E-02
  0.562120504E-02
  0.547712452E-02
  0.535919076E-02
  0.522363064E-02
  0.509738107E-02
  0.497758939E-02
  0.484417350E-02
  0.473071226E-02
  0.460334316E-02
  0.448374838E-02
  0.436953251E-02
  0.424478249E-02
  0.413446121E-02
  0.401724511E-02
  0.390106236E-02
  0.379332760E-02
  0.367748842E-02
  0.356842963E-02
  0.346150940E-02
  0.335005554E-02
  0.324542167E-02
  0.314038290E-02
  0.303360334E-02
  0.293198543E-02
  0.283003213E-02
  0.272744887E-02
  0.262845507E-02
  0.253005524E-02
  0.243137620E-02
  0.233496095E-02
  0.223998822E-02
  0.214522896E-02
  0.205164818E-02
  0.195965298E-02
  0.186860491E-02
  0.177837220E-02
  0.168927135E-02
  0.160135805E-02
  0.151448804E-02
  0.142860465E-02
  0.134373807E-02
  0.125990533E-02
  0.117709128E-02
  0.109527360E-02
  0.101443451E-02
  0.934558839E-03
  0.855630399E-03
  0.777631098E-03
  0.700540969E-03
  0.624338501E-03
  0.549000864E-03
  0.474503701E-03
  0.400821340E-03
  0.327926780E-03
  0.255791929E-03
  0.184403201E-03
  0.114306608E-03
  0.515181535E-04
  0.127674715E-04
  0.130509394E-05
  0.449645221E-07
  0.462884090E-09
  0.716133158E-12
  0.682855994E-24
  0.698504179E-24
  0.716039859E-24
  0.734425497E-24
  0.752719249E-24
  0.773901547E-24
  0.794637818E-24
  0.817571569E-24
  0.842667559E-24
  0.867904147E-24
  0.897526574E-24
  0.927923008E-24
  0.961908999E-24
  0.100075925E-23
  0.104199050E-23
  0.109199112E-23
  0.114822582E-23
  0.121645066E-23
  0.130434718E-23
  0.142256187E-23
  0.162231382E-23
  0.191691943E-23
  0.200087105E-23
  0.173482190E-23
  0.148335221E-23
  0.134011009E-23
  0.124067364E-23
  0.116371092E-23
  0.110472986E-23
  0.104853772E-23
  0.100482640E-23
  0.965308862E-24
  0.925785027E-24
  0.896288078E-24
  0.863883882E-24
  0.835737475E-24
  0.811566225E-24
  0.784444148E-24
  0.763601921E-24
  0.740899308E-24
  0.719564166E-24
  0.701474055E-24
  0.680559613E-24
  0.663757759E-24
  0.645855238E-24
  0.628125928E-24
  0.613140961E-24
  0.595692179E-24
  0.580956171E-24
  0.565859887E-24
  0.550098349E-24
  0.536760469E-24
  0.521486657E-24
  0.507682327E-24
  0.494296229E-24
  0.479650238E-24
  0.466994921E-24
  0.453206148E-24
  0.439644301E-24
  0.427172483E-24
  0.413334382E-24
  0.400621153E-24
  0.387843894E-24
  0.374311994E-24
  0.361927515E-24
  0.348819052E-24
  0.335644370E-24
  0.323201348E-24
  0.309918992E-24
  0.296936142E-24
  0.284245285E-24
  0.270873188E-24
  0.257880486E-24
  0.244907564E-24
  0.231433705E-24
  0.218267653E-24
  0.205016487E-24
  0.191384408E-24
  0.177945668E-24
  0.164422645E-24
  0.150587681E-24
  0.136819006E-24
  0.122982017E-24
  0.108894095E-24
  0.947818228E-25
  0.806178058E-25
  0.662348663E-25
  0.517412549E-25
  0.372210641E-25
  0.228993223E-25
  0.118839430E-25
  0.117245834E-25
  0.227408711E-25
  0.375039133E-25
  0.527586459E-25
  0.682224299E-25
  0.838033283E-25
  0.994122608E-25
  0.115195481E-24
  0.131176129E-24
  0.147140562E-24
  0.163218504E-24
  0.179574114E-24
  0.195866324E-24
  0.212168941E-24
  0.228854590E-24
  0.245441369E-24
  0.261898954E-24
  0.278855927E-24
  0.295615675E-24
  0.312117170E-24
  0.329269354E-24
  0.345979729E-24
  0.362394764E-24
  0.379619319E-24
  0.395916529E-24
  0.412127258E-24
  0.429097483E-24
  0.444398012E-24
  0.460277545E-24
  0.476227463E-24
  0.489934010E-24
  0.505187305E-24
  0.518541324E-24
  0.530168711E-24
  0.543445092E-24
  0.551863433E-24
  0.560831512E-24
  0.568348090E-24
  0.569228046E-24
  0.572566660E-24
  0.567054439E-24
  0.556387883E-24
  0.543289257E-24
  0.512768479E-24
  0.475732176E-24
  0.417174697E-24
  0.328875066E-24
  0.201863835E-24
 -0.130929341E-25
 -0.394276930E-24
 -0.943598376E-24
 -0.111259255E-23
 -0.814654961E-24
 -0.579457236E-24
 -0.456942717E-24
 -0.389683499E-24
 -0.339654064E-24
 -0.307124198E-24
 -0.282144480E-24
 -0.262292843E-24
 -0.250715175E-24
 -0.237309313E-24
 -0.233303098E-24
 -0.224740627E-24
 -0.224521657E-24
 -0.220562803E-24
 -0.221713972E-24
 -0.222194013E-24
 -0.223556597E-24
 -0.227897565E-24
 -0.229259770E-24
 -0.236522386E-24
 -0.238218546E-24
 -0.247372892E-24
 -0.249911626E-24
 -0.260014003E-24
 -0.263937433E-24
 -0.274263114E-24
 -0.279846383E-24
 -0.289996249E-24
 -0.297355016E-24
 -0.307115323E-24
 -0.316175655E-24
 -0.325523453E-24
 -0.336100381E-24
 -0.345143804E-24
 -0.357010420E-24
 -0.365910978E-24
 -0.378824651E-24
 -0.387709593E-24
 -0.401457742E-24
 -0.410500646E-24
 -0.424891387E-24
 -0.434167868E-24
 -0.449029593E-24
 -0.458633558E-24
 -0.473909058E-24
 -0.483916465E-24
 -0.499461198E-24
 -0.509904636E-24
 -0.525659511E-24
 -0.536544311E-24
 -0.552455027E-24
 -0.563869471E-24
 -0.579912236E-24
 -0.591820720E-24
 -0.607870968E-24
 -0.620335002E-24
 -0.636415925E-24
 -0.649511344E-24
 -0.665517999E-24
 -0.679150153E-24
 -0.695000470E-24
 -0.709360291E-24
 -0.725184151E-24
 -0.740141007E-24
 -0.755706223E-24
 -0.771262256E-24
 -0.786851101E-24
 -0.803000285E-24
 -0.818459749E-24
 -0.834906950E-24
 -0.850653359E-24
 -0.867466117E-24
 -0.883410986E-24
 -0.899998387E-24
 -0.916579425E-24
 -0.933175901E-24
 -0.950507659E-24
 -0.966444066E-24
 -0.984677428E-24
 -0.100036375E-23
 -0.101949842E-23
 -0.103445132E-23
 -0.105428673E-23
 -0.106942951E-23
 -0.108963088E-23
 -0.110474873E-23
 -0.112467726E-23
 -0.114114154E-23
 -0.116014777E-23
 -0.117785203E-23
</data>
</orbital>
<orbital 
 index="                        3" 
 atom_index="                        1" 
 species="C.gga" 
 Z="                        6" 
 position="   2.716154   0.000000  18.897269" 
 n="                        2" 
 l="                        1" 
 m="                       -1" 
 z="                        1" 
 P="false" 
>
<data>
  0.413857237E-01
  0.413055832E-01
  0.412058509E-01
  0.410989491E-01
  0.410430034E-01
  0.409325988E-01
  0.408938204E-01
  0.408082501E-01
  0.407477105E-01
  0.407137255E-01
  0.406362704E-01
  0.406189447E-01
  0.405624922E-01
  0.405287465E-01
  0.405161875E-01
  0.404651455E-01
  0.404629061E-01
  0.404403301E-01
  0.404175152E-01
  0.404269079E-01
  0.404045198E-01
  0.404051330E-01
  0.404167129E-01
  0.404068482E-01
  0.404228865E-01
  0.404376531E-01
  0.404405768E-01
  0.404648789E-01
  0.404871640E-01
  0.405020508E-01
  0.405317739E-01
  0.405628371E-01
  0.405879232E-01
  0.406211197E-01
  0.406595929E-01
  0.406949328E-01
  0.407320384E-01
  0.407744585E-01
  0.408182485E-01
  0.408616913E-01
  0.409067818E-01
  0.409542459E-01
  0.410030164E-01
  0.410523757E-01
  0.411023861E-01
  0.411531519E-01
  0.412045167E-01
  0.412562140E-01
  0.413079996E-01
  0.413596633E-01
  0.414109968E-01
  0.414617835E-01
  0.415117949E-01
  0.415607930E-01
  0.416085380E-01
  0.416547835E-01
  0.416992793E-01
  0.417417745E-01
  0.417815986E-01
  0.417772504E-01
  0.406716601E-01
  0.321197536E-01
  0.136786038E-01
  0.216863148E-02
  0.104917267E-03
  0.141280050E-05
  0.420577736E-08
  0.130623766E-23
  0.132385197E-23
  0.134524459E-23
  0.136761062E-23
  0.138873231E-23
  0.141553276E-23
  0.143996625E-23
  0.146819290E-23
  0.149970082E-23
  0.152971214E-23
  0.156774424E-23
  0.160508747E-23
  0.164773498E-23
  0.169767854E-23
  0.174878441E-23
  0.181407540E-23
  0.188603912E-23
  0.197440217E-23
  0.209050710E-23
  0.224530388E-23
  0.251312578E-23
  0.290751531E-23
  0.301560341E-23
  0.264965634E-23
  0.230049889E-23
  0.210128101E-23
  0.195963436E-23
  0.184836448E-23
  0.176411257E-23
  0.167979016E-23
  0.161570124E-23
  0.155658014E-23
  0.149554344E-23
  0.145178520E-23
  0.140093111E-23
  0.135731936E-23
  0.131996989E-23
  0.127644492E-23
  0.124402525E-23
  0.120749287E-23
  0.117329232E-23
  0.114450109E-23
  0.111024774E-23
  0.108335107E-23
  0.105408435E-23
  0.102505571E-23
  0.100075081E-23
  0.971897135E-24
  0.947863759E-24
  0.922947693E-24
  0.896876639E-24
  0.875041623E-24
  0.849709200E-24
  0.826984580E-24
  0.804955630E-24
  0.780767929E-24
  0.760051505E-24
  0.737323391E-24
  0.715007141E-24
  0.694603744E-24
  0.671907670E-24
  0.651142223E-24
  0.630235578E-24
  0.608074977E-24
  0.587942202E-24
  0.566674182E-24
  0.545305804E-24
  0.525128762E-24
  0.503566588E-24
  0.482566613E-24
  0.462102719E-24
  0.440526588E-24
  0.419578325E-24
  0.398688768E-24
  0.376977135E-24
  0.355786035E-24
  0.334462643E-24
  0.312522259E-24
  0.290906759E-24
  0.269118755E-24
  0.246802570E-24
  0.224543239E-24
  0.202121815E-24
  0.179266559E-24
  0.156322646E-24
  0.133223462E-24
  0.109676619E-24
  0.858659557E-25
  0.619161864E-25
  0.381806850E-25
  0.198734130E-25
  0.197174780E-25
  0.383771590E-25
  0.634834661E-25
  0.896228140E-25
  0.116340493E-24
  0.143493298E-24
  0.170975741E-24
  0.199067571E-24
  0.227824071E-24
  0.256900365E-24
  0.286588603E-24
  0.317220545E-24
  0.348227465E-24
  0.379788722E-24
  0.412619854E-24
  0.445945362E-24
  0.479730309E-24
  0.515168171E-24
  0.551147519E-24
  0.587631339E-24
  0.626350396E-24
  0.665435354E-24
  0.705256797E-24
  0.748027713E-24
  0.790747218E-24
  0.835081092E-24
  0.882845738E-24
  0.929714237E-24
  0.980211674E-24
  0.103376544E-23
  0.108626126E-23
  0.114549234E-23
  0.120536154E-23
  0.126673052E-23
  0.133717706E-23
  0.140468000E-23
  0.148117841E-23
  0.156415380E-23
  0.164462922E-23
  0.174404041E-23
  0.184182748E-23
  0.194935796E-23
  0.207889830E-23
  0.220507558E-23
  0.236259550E-23
  0.253692552E-23
  0.273521561E-23
  0.298753396E-23
  0.329271448E-23
  0.374487880E-23
  0.424320080E-23
  0.421651111E-23
  0.370870951E-23
  0.331544727E-23
  0.310134551E-23
  0.294260555E-23
  0.283356625E-23
  0.273869072E-23
  0.266225039E-23
  0.260102585E-23
  0.253894802E-23
  0.249791971E-23
  0.244553957E-23
  0.241535268E-23
  0.237251940E-23
  0.234631394E-23
  0.231365996E-23
  0.228742748E-23
  0.226464321E-23
  0.223681743E-23
  0.222225859E-23
  0.219340949E-23
  0.218455265E-23
  0.215602443E-23
  0.215017406E-23
  0.212376701E-23
  0.211847053E-23
  0.209564614E-23
  0.208917144E-23
  0.207069773E-23
  0.206196183E-23
  0.204825067E-23
  0.203683109E-23
  0.202769646E-23
  0.201365190E-23
  0.200856894E-23
  0.199211700E-23
  0.199059038E-23
  0.197227183E-23
  0.197358459E-23
  0.195375558E-23
  0.195740354E-23
  0.193654835E-23
  0.194199989E-23
  0.192037647E-23
  0.192726667E-23
  0.190509717E-23
  0.191316356E-23
  0.189067970E-23
  0.189966743E-23
  0.187688727E-23
  0.188666688E-23
  0.186372662E-23
  0.187417983E-23
  0.185119463E-23
  0.186210064E-23
  0.183912927E-23
  0.185029290E-23
  0.182767819E-23
  0.183880513E-23
  0.181680185E-23
  0.182732127E-23
  0.180645965E-23
  0.181592993E-23
  0.179687183E-23
  0.180445989E-23
  0.178789628E-23
  0.179280271E-23
  0.177981223E-23
  0.178105830E-23
  0.177229795E-23
  0.176891890E-23
  0.176544021E-23
  0.175690502E-23
  0.175913003E-23
  0.174480793E-23
  0.175295462E-23
  0.173330239E-23
  0.174681382E-23
  0.172230572E-23
  0.173997262E-23
  0.171264915E-23
  0.173236633E-23
  0.170424379E-23
  0.172325011E-23
  0.169778825E-23
  0.171297413E-23
  0.169293463E-23
  0.170117008E-23
  0.168983677E-23
  0.168868392E-23
  0.168741706E-23
</data>
</orbital>
<orbital 
 index="                        4" 
 atom_index="                        1" 
 species="C.gga" 
 Z="                        6" 
 position="   2.716154   0.000000  18.897269" 
 n="                        2" 
 l="                        1" 
 m="                        0" 
 z="                        1" 
 P="false" 
>
<data>
  0.390133119E-01
  0.390306326E-01
  0.390496428E-01
  0.390695398E-01
  0.390923693E-01
  0.391202400E-01
  0.391511645E-01
  0.391816878E-01
  0.392137406E-01
  0.392523527E-01
  0.392955874E-01
  0.393368477E-01
  0.393788328E-01
  0.394299161E-01
  0.394856570E-01
  0.395364302E-01
  0.395902310E-01
  0.396567968E-01
  0.397230688E-01
  0.397823979E-01
  0.398537280E-01
  0.399360731E-01
  0.400074084E-01
  0.400816932E-01
  0.401766878E-01
  0.402645561E-01
  0.403439600E-01
  0.404486096E-01
  0.405545230E-01
  0.406422246E-01
  0.407558713E-01
  0.408798070E-01
  0.409780751E-01
  0.411022805E-01
  0.412440204E-01
  0.413538175E-01
  0.414918489E-01
  0.416512831E-01
  0.417727595E-01
  0.419293842E-01
  0.421059066E-01
  0.422395000E-01
  0.424208412E-01
  0.426122839E-01
  0.427605687E-01
  0.429731806E-01
  0.431751813E-01
  0.433453773E-01
  0.435935952E-01
  0.438009963E-01
  0.440068097E-01
  0.442884686E-01
  0.445005263E-01
  0.447602259E-01
  0.450636681E-01
  0.452925500E-01
  0.456201602E-01
  0.459287599E-01
  0.462051468E-01
  0.465970351E-01
  0.469060141E-01
  0.472708054E-01
  0.477005820E-01
  0.480390307E-01
  0.485167996E-01
  0.489560908E-01
  0.493903731E-01
  0.499639670E-01
  0.504277007E-01
  0.510253970E-01
  0.516517393E-01
  0.522279167E-01
  0.530049055E-01
  0.536879302E-01
  0.545029062E-01
  0.554277011E-01
  0.562929124E-01
  0.574355189E-01
  0.585430920E-01
  0.598328290E-01
  0.613706771E-01
  0.629394240E-01
  0.649925687E-01
  0.672639927E-01
  0.700962247E-01
  0.738744755E-01
  0.789777646E-01
  0.879743166E-01
  0.101313708E+00
  0.104659800E+00
  0.915652106E-01
  0.791377119E-01
  0.719629298E-01
  0.668215768E-01
  0.627625944E-01
  0.596439495E-01
  0.565573977E-01
  0.541742615E-01
  0.519710435E-01
  0.497284181E-01
  0.480689949E-01
  0.461927790E-01
  0.445706309E-01
  0.431599217E-01
  0.415641340E-01
  0.403388431E-01
  0.389877541E-01
  0.377231140E-01
  0.366386428E-01
  0.353915800E-01
  0.343854889E-01
  0.333115789E-01
  0.322554101E-01
  0.313523720E-01
  0.303170292E-01
  0.294387473E-01
  0.285401617E-01
  0.276145780E-01
  0.268234712E-01
  0.259336751E-01
  0.251307222E-01
  0.243529174E-01
  0.235180032E-01
  0.227925882E-01
  0.220136555E-01
  0.212554282E-01
  0.205574266E-01
  0.197976976E-01
  0.191021227E-01
  0.184086442E-01
  0.176858940E-01
  0.170261618E-01
  0.163375293E-01
  0.156531048E-01
  0.150094693E-01
  0.143325071E-01
  0.136769818E-01
  0.130406578E-01
  0.123785755E-01
  0.117408147E-01
  0.111095479E-01
  0.104610323E-01
  0.983252732E-02
  0.920526846E-02
  0.856595719E-02
  0.794054916E-02
  0.731600333E-02
  0.668225948E-02
  0.605581653E-02
  0.543030936E-02
  0.479742938E-02
  0.416706301E-02
  0.353778064E-02
  0.290180707E-02
  0.226356840E-02
  0.162639747E-02
  0.999635529E-03
  0.518290197E-03
  0.510733587E-03
  0.990239800E-03
  0.163300474E-02
  0.229755868E-02
  0.297218284E-02
  0.365345797E-02
  0.433818070E-02
  0.503340066E-02
  0.574072689E-02
  0.645179679E-02
  0.717314960E-02
  0.791287046E-02
  0.865721872E-02
  0.941044102E-02
  0.101901767E-01
  0.109765698E-01
  0.117699559E-01
  0.125996127E-01
  0.134367623E-01
  0.142808812E-01
  0.151744691E-01
  0.160718481E-01
  0.169820871E-01
  0.179579884E-01
  0.189257553E-01
  0.199270374E-01
  0.210060705E-01
  0.220585747E-01
  0.231918881E-01
  0.243917106E-01
  0.255609841E-01
  0.268843530E-01
  0.282169324E-01
  0.295807022E-01
  0.311526956E-01
  0.326507434E-01
  0.343575515E-01
  0.362150350E-01
  0.380179684E-01
  0.402669999E-01
  0.424869476E-01
  0.449557492E-01
  0.479689808E-01
  0.509648578E-01
  0.547857102E-01
  0.591645513E-01
  0.644120883E-01
  0.715291797E-01
  0.813564854E-01
  0.987206558E-01
  0.122594598E+00
  0.127106152E+00
  0.109236631E+00
  0.948111045E-01
  0.871347467E-01
  0.817989124E-01
  0.780936992E-01
  0.750001478E-01
  0.725158088E-01
  0.705088603E-01
  0.685828025E-01
  0.672066401E-01
  0.656330733E-01
  0.646078065E-01
  0.633362290E-01
  0.624727331E-01
  0.614905401E-01
  0.606764610E-01
  0.599594283E-01
  0.591484623E-01
  0.586487846E-01
  0.578422268E-01
  0.574959447E-01
  0.567209215E-01
  0.564614563E-01
  0.557520188E-01
  0.555217455E-01
  0.549063121E-01
  0.546629569E-01
  0.541584627E-01
  0.538763833E-01
  0.534875759E-01
  0.531555298E-01
  0.528772748E-01
  0.524945097E-01
  0.523152289E-01
  0.518873830E-01
  0.517924598E-01
  0.513282151E-01
  0.513027684E-01
  0.508114434E-01
  0.508419258E-01
  0.503315924E-01
  0.504062289E-01
  0.498829074E-01
  0.499925421E-01
  0.494611976E-01
  0.495998244E-01
  0.490639068E-01
  0.492260155E-01
  0.486862125E-01
  0.488671157E-01
  0.483257270E-01
  0.485236963E-01
  0.479833489E-01
  0.481927439E-01
  0.476538711E-01
  0.478692453E-01
  0.473395719E-01
  0.475559417E-01
  0.470409892E-01
  0.472440841E-01
  0.467538322E-01
  0.469349019E-01
  0.464864318E-01
  0.466253297E-01
  0.462301960E-01
  0.463091228E-01
  0.459936101E-01
  0.459929063E-01
  0.457695863E-01
  0.456653178E-01
  0.455590297E-01
  0.453412461E-01
  0.453582941E-01
  0.450099272E-01
  0.451575687E-01
  0.446919214E-01
  0.449557572E-01
  0.443800105E-01
  0.447341488E-01
  0.440971479E-01
  0.444949995E-01
  0.438365910E-01
  0.442174294E-01
  0.436180932E-01
  0.439119008E-01
  0.434268343E-01
  0.435652982E-01
  0.432728107E-01
  0.432017049E-01
  0.431251034E-01
</data>
</orbital>
<orbital 
 index="                        5" 
 atom_index="                        1" 
 species="C.gga" 
 Z="                        6" 
 position="   2.716154   0.000000  18.897269" 
 n="                        2" 
 l="                        1" 
 m="                        1" 
 z="                        1" 
 P="false" 
>
<data>
  0.413812055E-01
  0.413015184E-01
  0.412011302E-01
  0.410946367E-01
  0.410383524E-01
  0.409279855E-01
  0.408893146E-01
  0.408032429E-01
  0.407432061E-01
  0.407087673E-01
  0.406313847E-01
  0.406141251E-01
  0.405572917E-01
  0.405239512E-01
  0.405109793E-01
  0.404599384E-01
  0.404578772E-01
  0.404348966E-01
  0.404123447E-01
  0.404215677E-01
  0.403989506E-01
  0.403998325E-01
  0.404111368E-01
  0.404012136E-01
  0.404173971E-01
  0.404318719E-01
  0.404347958E-01
  0.404591865E-01
  0.404812370E-01
  0.404960998E-01
  0.405258808E-01
  0.405567658E-01
  0.405817643E-01
  0.406149963E-01
  0.406533740E-01
  0.406885847E-01
  0.407256612E-01
  0.407680480E-01
  0.408117393E-01
  0.408550878E-01
  0.409001194E-01
  0.409475246E-01
  0.409962165E-01
  0.410454897E-01
  0.410954182E-01
  0.411461056E-01
  0.411973907E-01
  0.412490056E-01
  0.413007065E-01
  0.413522838E-01
  0.414035297E-01
  0.414542273E-01
  0.415041484E-01
  0.415530553E-01
  0.416007076E-01
  0.416468591E-01
  0.416912599E-01
  0.417336594E-01
  0.417734128E-01
  0.417709524E-01
  0.407018010E-01