Siesta Version  : v4.1-b4
Architecture    : linux
Compiler version: GNU Fortran (Ubuntu 5.4.0-6ubuntu1~16.04.11) 5.4.0 20160609
Compiler flags  : mpif90 -g -fPIC -O3 -ftree-vectorize
PP flags        : -DFC_HAVE_ABORT -DSIESTA__DIAG_2STAGE -DSIESTA__MRRR -DMPI
Libraries       :  -Wl,-Bstatic -Wl,--start-group -lmkl_scalapack_lp64 -lmkl_blacs_intelmpi_lp664 -lmkl_intel_lp64 -lmkl_sequential -lmkl_core -Wl,--end-group -Wl,-Bdynamic
PARALLEL version

* Running on 6 nodes in parallel
>> Start of run:  28-AUG-2019  14:20:47

                           ***********************       
                           *  WELCOME TO SIESTA  *       
                           ***********************       

reinit: Reading from standard input
reinit: Dumped input in INPUT_TMP.89935
************************** Dump of input data file ****************************
# Siesta input file
         # -- SELF-CONSISTENT FIELD --
MeshCutoff                   500 Ry
PAO.EnergyShift              30 meV
XC.Functional                GGA
XC.Authors                   PBEsol
MaxSCFIterations             1000
         # -- MOLECULAR DYNAMICS --
MD.TypeOfRun                 Broyden
MD.NumCGsteps                100
MD.MaxForceTol               0.01 eV/Ang
MD.VariableCell              true
MD.MaxStressTol              0.01 GPa
         # -- BRILLOUIN ZONE --
%block KgridMonkhorstPack
  15   0   0   0.0
   0  15   0   0.0
   0   0  15   0.0
%endblock KgridMonkhorstPack
Diag.ParallelOverK           true                # Default: false
         # -- MATERIAL --
SystemLabel                  Gold
WriteCoorStep                true
WriteCoorXmol                true
%block ChemicalSpeciesLabel
 1  79  Au.gga
%endblock ChemicalSpeciesLabel
LatticeConstant              1.000 Ang
%block LatticeVectors
        0.000000    2.239129    2.239129
        2.239129    0.000000    2.239129
        2.239129    2.239129    0.000000
%endblock LatticeVectors
AtomicCoordinatesFormat      ScaledByLatticeVectors
%block AtomicCoordinatesAndAtomicSpecies
    0.00000000    0.00000000    0.00000000 1
%endblock AtomicCoordinatesAndAtomicSpecies
************************** End of input data file *****************************

reinit: -----------------------------------------------------------------------
reinit: System Name: 
reinit: -----------------------------------------------------------------------
reinit: System Label: Gold
reinit: -----------------------------------------------------------------------

initatom: Reading input for the pseudopotentials and atomic orbitals ----------
Species number:   1 Atomic number:   79 Label: Au.gga

Ground state valence configuration:   6s01  5d10
Reading pseudopotential information in formatted form from Au.gga.psf

Valence configuration for pseudopotential generation:
6s( 1.00) rc: 2.60
6p( 0.00) rc: 2.77
5d(10.00) rc: 2.60
5f( 0.00) rc: 2.60
For Au.gga, standard SIESTA heuristics set lmxkb to 3
 (one more than the basis l, including polarization orbitals).
Use PS.lmax or PS.KBprojectors blocks to override.

<basis_specs>
===============================================================================
Au.gga               Z=  79    Mass=  196.97        Charge= 0.17977+309
Lmxo=2 Lmxkb= 3    BasisType=split      Semic=F
L=0  Nsemic=0  Cnfigmx=6
          n=1  nzeta=2  polorb=1
            splnorm:   0.15000    
               vcte:    0.0000    
               rinn:    0.0000    
               qcoe:    0.0000    
               qyuk:    0.0000    
               qwid:   0.10000E-01
                rcs:    0.0000      0.0000    
            lambdas:    1.0000      1.0000    
L=1  Nsemic=0  Cnfigmx=6
L=2  Nsemic=0  Cnfigmx=5
          n=1  nzeta=2  polorb=0
            splnorm:   0.15000    
               vcte:    0.0000    
               rinn:    0.0000    
               qcoe:    0.0000    
               qyuk:    0.0000    
               qwid:   0.10000E-01
                rcs:    0.0000      0.0000    
            lambdas:    1.0000      1.0000    
-------------------------------------------------------------------------------
L=0  Nkbl=1  erefs: 0.17977+309
L=1  Nkbl=1  erefs: 0.17977+309
L=2  Nkbl=1  erefs: 0.17977+309
L=3  Nkbl=1  erefs: 0.17977+309
===============================================================================
</basis_specs>

atom: Called for Au.gga                (Z =  79)

read_vps: Pseudopotential generation method:
read_vps: ATM3      Troullier-Martins                       
Total valence charge:   11.00000

read_vps: Pseudopotential includes a core correction:
read_vps: Pseudo-core for xc-correction

xc_check: Exchange-correlation functional:
xc_check: GGA PBEsol
xc_check: WARNING: Pseudopotential generated with GGA PBE functional
V l=0 = -2*Zval/r beyond r=  2.8735
V l=1 = -2*Zval/r beyond r=  2.9833
V l=2 = -2*Zval/r beyond r=  2.8735
V l=3 = -2*Zval/r beyond r=  2.8735
All V_l potentials equal beyond r=  2.6994
This should be close to max(r_c) in ps generation
All pots = -2*Zval/r beyond r=  2.9833

VLOCAL1: 99.0% of the norm of Vloc inside      5.957 Ry
VLOCAL1: 99.9% of the norm of Vloc inside     13.576 Ry
atom: Maximum radius for 4*pi*r*r*local-pseudopot. charge    3.25614
atom: Maximum radius for r*vlocal+2*Zval:    2.87353
GHOST: No ghost state for L =  0
GHOST: No ghost state for L =  1
GHOST: No ghost state for L =  2
GHOST: No ghost state for L =  3

KBgen: Kleinman-Bylander projectors: 
   l= 0   rc=  3.175745   el= -0.304287   Ekb=  3.671361   kbcos=  0.264890
   l= 1   rc=  3.297098   el= -0.057337   Ekb=  2.092463   kbcos=  0.220526
   l= 2   rc=  2.946275   el= -0.582158   Ekb= -5.146683   kbcos= -0.709825
   l= 3   rc=  3.380565   el=  0.003083   Ekb= -1.673841   kbcos= -0.016807

KBgen: Total number of  Kleinman-Bylander projectors:   16
atom: -------------------------------------------------------------------------

atom: SANKEY-TYPE ORBITALS:
atom: Selected multiple-zeta basis: split     

SPLIT: Orbitals with angular momentum L= 0

SPLIT: Basis orbitals for state 6s

SPLIT: PAO cut-off radius determined from an
SPLIT: energy shift=  0.002205 Ry

   izeta = 1
                 lambda =    1.000000
                     rc =    9.075230
                 energy =   -0.302301
                kinetic =    0.258616
    potential(screened) =   -0.560918
       potential(ionic) =   -7.267513

   izeta = 2
                 rmatch =    6.979991
              splitnorm =    0.150000
                 energy =   -0.255663
                kinetic =    0.428917
    potential(screened) =   -0.684580
       potential(ionic) =   -7.952182

SPLIT: Orbitals with angular momentum L= 2

SPLIT: Basis orbitals for state 5d

SPLIT: PAO cut-off radius determined from an
SPLIT: energy shift=  0.002205 Ry

   izeta = 1
                 lambda =    1.000000
                     rc =    5.504393
                 energy =   -0.580111
                kinetic =    4.823298
    potential(screened) =   -5.403409
       potential(ionic) =  -16.032429

   izeta = 2
                 rmatch =    2.873530
              splitnorm =    0.150000
                 energy =   -0.298515
                kinetic =    6.702231
    potential(screened) =   -7.000746
       potential(ionic) =  -18.506032

POLgen: Perturbative polarization orbital with L=  1

POLgen: Polarization orbital for state 6s

   izeta = 1
                     rc =    9.075230
                 energy =   -0.060464
                kinetic =    0.452995
    potential(screened) =   -0.513459
       potential(ionic) =   -6.704203
atom: Total number of Sankey-type orbitals: 15

atm_pop: Valence configuration (for local Pseudopot. screening):
 6s( 1.00)                                                            
 6p( 0.00)                                                            
 5d(10.00)                                                            
Vna: chval, zval:   11.00000  11.00000

Vna:  Cut-off radius for the neutral-atom potential:   9.075230
comcore: Pseudo-core radius Rcore=  4.129038

atom: _________________________________________________________________________

prinput: Basis input ----------------------------------------------------------

PAO.BasisType split     

%block ChemicalSpeciesLabel
    1   79 Au.gga                  # Species index, atomic number, species label
%endblock ChemicalSpeciesLabel

%block PAO.Basis                 # Define Basis set
Au.gga                2                    # Species label, number of l-shells
 n=6   0   2 P   1                   # n, l, Nzeta, Polarization, NzetaPol
   9.075      6.980   
   1.000      1.000   
 n=5   2   2                         # n, l, Nzeta 
   5.504      2.874   
   1.000      1.000   
%endblock PAO.Basis

prinput: ----------------------------------------------------------------------

coor:   Atomic-coordinates input format  =     Fractional

siesta: Atomic coordinates (Bohr) and species
siesta:      0.00000   0.00000   0.00000  1        1

siesta: System type = bulk      

initatomlists: Number of atoms, orbitals, and projectors:      1    15    16

coxmol: Writing XMOL coordinates into file Gold.xyz                                                            

siesta: ******************** Simulation parameters ****************************
siesta:
siesta: The following are some of the parameters of the simulation.
siesta: A complete list of the parameters used, including default values,
siesta: can be found in file out.fdf
siesta:
redata: Spin configuration                          = none
redata: Number of spin components                   = 1
redata: Time-Reversal Symmetry                      = T
redata: Spin-spiral                                 = F
redata: Long output                                 =   F
redata: Number of Atomic Species                    =        1
redata: Charge density info will appear in .RHO file
redata: Write Mulliken Pop.                         = NO
redata: Matel table size (NRTAB)                    =     1024
redata: Mesh Cutoff                                 =   500.0000 Ry
redata: Net charge of the system                    =     0.0000 |e|
redata: Min. number of SCF Iter                     =        0
redata: Max. number of SCF Iter                     =     1000
redata: SCF convergence failure will abort job
redata: SCF mix quantity                            = Hamiltonian
redata: Mix DM or H after convergence               =   F
redata: Recompute H after scf cycle                 =   F
redata: Mix DM in first SCF step                    =   T
redata: Write Pulay info on disk                    =   F
redata: New DM Mixing Weight                        =     0.2500
redata: New DM Occupancy tolerance                  = 0.000000000001
redata: No kicks to SCF
redata: DM Mixing Weight for Kicks                  =     0.5000
redata: Require Harris convergence for SCF          =   F
redata: Harris energy tolerance for SCF             =     0.000100 eV
redata: Require DM convergence for SCF              =   T
redata: DM tolerance for SCF                        =     0.000100
redata: Require EDM convergence for SCF             =   F
redata: EDM tolerance for SCF                       =     0.001000 eV
redata: Require H convergence for SCF               =   T
redata: Hamiltonian tolerance for SCF               =     0.001000 eV
redata: Require (free) Energy convergence for SCF   =   F
redata: (free) Energy tolerance for SCF             =     0.000100 eV
redata: Using Saved Data (generic)                  =   F
redata: Use continuation files for DM               =   F
redata: Neglect nonoverlap interactions             =   F
redata: Method of Calculation                       = Diagonalization
redata: Electronic Temperature                      =   299.9869 K
redata: Fix the spin of the system                  =   F
redata: Dynamics option                             = Broyden coord. optimization
redata: Variable cell                               =   T
redata: Maximum number of CG moves                  =      100
redata: Force tolerance                             =     0.0100 eV/Ang
redata: Stress tolerance                            =     0.0100 GPa
mix.SCF: Pulay mixing                            = Pulay
mix.SCF:    Variant                              = stable
mix.SCF:    History steps                        = 2
mix.SCF:    Linear mixing weight                 =     0.250000
mix.SCF:    Mixing weight                        =     0.250000
mix.SCF:    SVD condition                        = 0.1000E-07
redata: ***********************************************************************

%block SCF.Mixers
  Pulay
%endblock SCF.Mixers

%block SCF.Mixer.Pulay
  # Mixing method
  method pulay
  variant stable

  # Mixing options
  weight 0.2500
  weight.linear 0.2500
  history 2
%endblock SCF.Mixer.Pulay

DM_history_depth set to one: no extrapolation allowed by default for geometry relaxation
Size of DM history Fstack: 1
Total number of electrons:    11.000000
Total ionic charge:    11.000000

* ProcessorY, Blocksize:    2   2


* Orbital distribution balance (max,min):     4     2

 Kpoints in:         1800 . Kpoints trimmed:         1688

siesta: k-grid: Number of k-points =  1688
siesta: k-grid: Cutoff (effective) =    23.750 Ang
siesta: k-grid: Supercell and displacements
siesta: k-grid:   15   0   0      0.000
siesta: k-grid:    0  15   0      0.000
siesta: k-grid:    0   0  15      0.000

diag: Algorithm                                     = D&C
diag: Parallel over k                               =   T
diag: Use parallel 2D distribution                  =   T
diag: Parallel block-size                           = 2
diag: Parallel distribution                         =     2 x     3
diag: Used triangular part                          = Lower
diag: Absolute tolerance                            =  0.100E-15
diag: Orthogonalization factor                      =  0.100E-05
diag: Memory factor                                 =  1.0000

superc: Internal auxiliary supercell:     9 x     9 x     9  =     729
superc: Number of atoms, orbitals, and projectors:    729  10935  11664


ts: **************************************************************
ts: Save H and S matrices                           =    F
ts: Save DM and EDM matrices                        =    F
ts: Fix Hartree potential                           =    F
ts: Only save the overlap matrix S                  =    F
ts: **************************************************************

************************ Begin: TS CHECKS AND WARNINGS ************************
************************ End: TS CHECKS AND WARNINGS **************************


                     ====================================
                        Begin Broyden opt. move =      0
                     ====================================

outcoor: Atomic coordinates (fractional):                   
    0.00000000    0.00000000    0.00000000   1       1  Au.gga

superc: Internal auxiliary supercell:     9 x     9 x     9  =     729
superc: Number of atoms, orbitals, and projectors:    729  10935  11664

outcell: Unit cell vectors (Ang):
        0.000000    2.239129    2.239129
        2.239129    0.000000    2.239129
        2.239129    2.239129    0.000000

outcell: Cell vector modules (Ang)   :    3.166607    3.166607    3.166607
outcell: Cell angles (23,13,12) (deg):     60.0000     60.0000     60.0000
outcell: Cell volume (Ang**3)        :     22.4526
<dSpData1D:S at geom step 0
  <sparsity:sparsity for geom step 0
    nrows_g=15 nrows=4 sparsity=49.9556 nnzs=11240, refcount: 7>
  <dData1D:(new from dSpData1D) n=11240, refcount: 1>
refcount: 1>
new_DM -- step:     1
Initializing Density Matrix...
DM filled with atomic data:
<dSpData2D:DM initialized from atoms
  <sparsity:sparsity for geom step 0
    nrows_g=15 nrows=4 sparsity=49.9556 nnzs=11240, refcount: 8>
  <dData2D:DM n=11240 m=1, refcount: 1>
refcount: 1>
No. of atoms with KB's overlaping orbs in proc 0. Max # of overlaps:      55     399
New grid distribution:   1
           1       1:   18    1:    9    1:    6
           2       1:   18    1:    9    7:   12
           3       1:   18    1:    9   13:   18
           4       1:   18   10:   18    1:    6
           5       1:   18   10:   18    7:   12
           6       1:   18   10:   18   13:   18

InitMesh: MESH =    36 x    36 x    36 =       46656
InitMesh: (bp) =    18 x    18 x    18 =        5832
InitMesh: Mesh cutoff (required, used) =   500.000   535.809 Ry
ExtMesh (bp) on 0 =   154 x   145 x   142 =     3170860
New grid distribution:   2
           1       1:   18    1:    6    1:    9
           2      10:   18    7:   18    1:    9
           3       1:   18    1:    6   10:   18
           4       1:    9    7:   18    1:    9
           5      10:   18    7:   18   10:   18
           6       1:    9    7:   18   10:   18
New grid distribution:   3
           1       1:   18    1:    6    1:    9
           2      10:   18    7:   18    1:    9
           3       1:   18    1:    6   10:   18
           4       1:    9    7:   18    1:    9
           5      10:   18    7:   18   10:   18
           6       1:    9    7:   18   10:   18
Setting up quadratic distribution...
ExtMesh (bp) on 0 =   154 x   142 x   145 =     3170860
PhiOnMesh: Number of (b)points on node 0 =                  972
PhiOnMesh: nlist on node 0 =               118142

stepf: Fermi-Dirac step function

siesta: Program's energy decomposition (eV):
siesta: Ebs     =      -106.053816
siesta: Eions   =      1090.328175
siesta: Ena     =        31.017502
siesta: Ekin    =       626.928834
siesta: Enl     =      -330.641236
siesta: Eso     =         0.000000
siesta: Eldau   =         0.000000
siesta: DEna    =         7.860554
siesta: DUscf   =         0.672629
siesta: DUext   =         0.000000
siesta: Enegf   =         0.000000
siesta: Exc     =      -208.878680
siesta: eta*DQ  =         0.000000
siesta: Emadel  =         0.000000
siesta: Emeta   =         0.000000
siesta: Emolmec =         0.000000
siesta: Ekinion =         0.000000
siesta: Eharris =      -962.369939
siesta: Etot    =      -963.368572
siesta: FreeEng =      -963.369819

        iscf     Eharris(eV)        E_KS(eV)     FreeEng(eV)     dDmax    Ef(eV) dHmax(eV)
   scf:    1     -962.369939     -963.368572     -963.369819  1.353516 -3.919146  2.466324
timer: Routine,Calls,Time,% = IterSCF        1       1.276  43.34
   scf:    2     -963.757279     -963.583478     -963.584794  0.210885 -4.109955  1.172159
   scf:    3     -963.672013     -963.642943     -963.644387  0.167834 -4.265669  0.029412
   scf:    4     -963.642935     -963.642944     -963.644387  0.002186 -4.273767  0.016863
   scf:    5     -963.642950     -963.642947     -963.644391  0.000963 -4.279670  0.010612
   scf:    6     -963.642955     -963.642951     -963.644395  0.001896 -4.287825  0.001975
   scf:    7     -963.642952     -963.642952     -963.644396  0.000481 -4.288997  0.000957
   scf:    8     -963.642952     -963.642952     -963.644396  0.000216 -4.289402  0.000319
   scf:    9     -963.642952     -963.642952     -963.644396  0.000018 -4.289382  0.000179

SCF Convergence by DM+H criterion
max |DM_out - DM_in|         :     0.0000182420
max |H_out - H_in|      (eV) :     0.0001785837
SCF cycle converged after 9 iterations

Using DM_out to compute the final energy and forces
No. of atoms with KB's overlaping orbs in proc 0. Max # of overlaps:      55     399

siesta: E_KS(eV) =             -963.6430

siesta: E_KS - E_eggbox =      -963.6430

siesta: Atomic forces (eV/Ang):
----------------------------------------
   Tot    0.000000   -0.000000    0.000000
----------------------------------------
   Max    0.000000
   Res    0.000000    sqrt( Sum f_i^2 / 3N )
----------------------------------------
   Max    0.000000    constrained

Stress-tensor-Voigt (kbar):       52.75       52.75       52.75       -0.01       -0.01       -0.01
(Free)E + p*V (eV/cell)     -964.3836
Target enthalpy (eV/cell)     -963.6444

siesta: Stress tensor (static) (eV/Ang**3):
         0.032924   -0.000009   -0.000009
        -0.000009    0.032924   -0.000009
        -0.000009   -0.000009    0.032924

siesta: Pressure (static):        -52.75023678  kBar

siesta: Stress tensor (total) (eV/Ang**3):
         0.032924   -0.000009   -0.000009
        -0.000009    0.032924   -0.000009
        -0.000009   -0.000009    0.032924

siesta: Pressure (total):        -52.75023678  kBar

Broyden_optim: max_history for broyden:   5
Broyden_optim: cycle on maxit: T
Broyden_optim: initial inverse jacobian:   1.0000

Broyden_optim: No of elements:      9

Broyden_optim: No target stress found, assuming hydrostatic MD.TargetPressure.

Broyden_optim: Target stress (kBar)
Broyden_optim:        -0.000       0.000       0.000
Broyden_optim:         0.000      -0.000       0.000
Broyden_optim:         0.000       0.000      -0.000

                     ====================================
                        Begin Broyden opt. move =      1
                     ====================================

outcoor: Atomic coordinates (fractional):                   
    0.00000000    0.00000000    0.00000000   1       1  Au.gga
 Kpoints in:         1800 . Kpoints trimmed:         1688

siesta: k-grid: Number of k-points =  1688
siesta: k-grid: Cutoff (effective) =    23.735 Ang
siesta: k-grid: Supercell and displacements
siesta: k-grid:   15   0   0      0.000
siesta: k-grid:    0  15   0      0.000
siesta: k-grid:    0   0  15      0.000

superc: Internal auxiliary supercell:     9 x     9 x     9  =     729
superc: Number of atoms, orbitals, and projectors:    729  10935  11664

outcell: Unit cell vectors (Ang):
        0.000001    2.237767    2.237767
        2.237767    0.000001    2.237767
        2.237767    2.237767    0.000001

outcell: Cell vector modules (Ang)   :    3.164680    3.164680    3.164680
outcell: Cell angles (23,13,12) (deg):     60.0000     60.0000     60.0000
outcell: Cell volume (Ang**3)        :     22.4117
<dSpData1D:S at geom step 1
  <sparsity:sparsity for geom step 1
    nrows_g=15 nrows=4 sparsity=56.6933 nnzs=12756, refcount: 7>
  <dData1D:(new from dSpData1D) n=12756, refcount: 1>
refcount: 1>
new_DM -- step:     2
Re-using DM from previous geometries...
Number of DMs in history: 1
 DM extrapolation coefficients: 
1   1.00000
New DM after history re-use:
<dSpData2D:SpM extrapolated using coords
  <sparsity:sparsity for geom step 1
    nrows_g=15 nrows=4 sparsity=56.6933 nnzs=12756, refcount: 9>
  <dData2D:(temp array for extrapolation) n=12756 m=1, refcount: 1>
refcount: 1>
No. of atoms with KB's overlaping orbs in proc 0. Max # of overlaps:      55     423
New grid distribution:   1
           1       1:   18    1:    9    1:    6
           2       1:   18    1:    9    7:   12
           3       1:   18    1:    9   13:   18
           4       1:   18   10:   18    1:    6
           5       1:   18   10:   18    7:   12
           6       1:   18   10:   18   13:   18

InitMesh: MESH =    36 x    36 x    36 =       46656
InitMesh: (bp) =    18 x    18 x    18 =        5832
InitMesh: Mesh cutoff (required, used) =   500.000   536.461 Ry
ExtMesh (bp) on 0 =   154 x   145 x   142 =     3170860
New grid distribution:   2
           1       1:   18    1:    6    1:    9
           2      10:   18    7:   18    1:    9
           3       1:   18    1:    6   10:   18
           4       1:    9    7:   18    1:    9
           5      10:   18    7:   18   10:   18
           6       1:    9    7:   18   10:   18
New grid distribution:   3
           1       1:   18    1:    6    1:    9
           2      10:   18    7:   18    1:    9
           3       1:   18    1:    6   10:   18
           4       1:    9    7:   18    1:    9
           5      10:   18    7:   18   10:   18
           6       1:    9    7:   18   10:   18
Setting up quadratic distribution...
ExtMesh (bp) on 0 =   154 x   142 x   145 =     3170860
PhiOnMesh: Number of (b)points on node 0 =                  972
PhiOnMesh: nlist on node 0 =               118399

        iscf     Eharris(eV)        E_KS(eV)     FreeEng(eV)     dDmax    Ef(eV) dHmax(eV)
   scf:    1     -963.642359     -963.644291     -963.645731  0.036282 -4.288205  0.006544
   scf:    2     -963.644287     -963.644291     -963.645731  0.001876 -4.286680  0.006872
   scf:    3     -963.644293     -963.644293     -963.645733  0.000965 -4.287451  0.000038
   scf:    4     -963.644293     -963.644293     -963.645733  0.000001 -4.287442  0.000029

SCF Convergence by DM+H criterion
max |DM_out - DM_in|         :     0.0000013401
max |H_out - H_in|      (eV) :     0.0000285269
SCF cycle converged after 4 iterations

Using DM_out to compute the final energy and forces
No. of atoms with KB's overlaping orbs in proc 0. Max # of overlaps:      55     423

siesta: E_KS(eV) =             -963.6443

siesta: Atomic forces (eV/Ang):
----------------------------------------
   Tot   -0.000000    0.000000   -0.000000
----------------------------------------
   Max    0.000000
   Res    0.000000    sqrt( Sum f_i^2 / 3N )
----------------------------------------
   Max    0.000000    constrained

Stress-tensor-Voigt (kbar):       51.75       51.75       51.75       -0.01       -0.01       -0.01
(Free)E + p*V (eV/cell)     -964.3696
Target enthalpy (eV/cell)     -963.6457

siesta: Stress tensor (static) (eV/Ang**3):
         0.032299   -0.000009   -0.000009
        -0.000009    0.032299   -0.000009
        -0.000009   -0.000009    0.032299

siesta: Pressure (static):        -51.74862062  kBar

siesta: Stress tensor (total) (eV/Ang**3):
         0.032299   -0.000009   -0.000009
        -0.000009    0.032299   -0.000009
        -0.000009   -0.000009    0.032299

siesta: Pressure (total):        -51.74862062  kBar

                     ====================================
                        Begin Broyden opt. move =      2
                     ====================================

outcoor: Atomic coordinates (fractional):                   
   -0.00000000   -0.00000000   -0.00000000   1       1  Au.gga
 Kpoints in:         1800 . Kpoints trimmed:         1688

siesta: k-grid: Number of k-points =  1688
siesta: k-grid: Cutoff (effective) =    23.054 Ang
siesta: k-grid: Supercell and displacements
siesta: k-grid:   15   0   0      0.000
siesta: k-grid:    0  15   0      0.000
siesta: k-grid:    0   0  15      0.000

superc: Internal auxiliary supercell:     9 x     9 x     9  =     729
superc: Number of atoms, orbitals, and projectors:    729  10935  11664

outcell: Unit cell vectors (Ang):
        0.000037    2.173570    2.173570
        2.173570    0.000037    2.173570
        2.173570    2.173570    0.000037

outcell: Cell vector modules (Ang)   :    3.073893    3.073893    3.073893
outcell: Cell angles (23,13,12) (deg):     59.9989     59.9989     59.9989
outcell: Cell volume (Ang**3)        :     20.5371
<dSpData1D:S at geom step 2
  <sparsity:sparsity for geom step 2
    nrows_g=15 nrows=4 sparsity=56.6933 nnzs=12756, refcount: 7>
  <dData1D:(new from dSpData1D) n=12756, refcount: 1>
refcount: 1>
new_DM -- step:     3
Re-using DM from previous geometries...
Number of DMs in history: 1
 DM extrapolation coefficients: 
1   1.00000
New DM after history re-use:
<dSpData2D:SpM extrapolated using coords
  <sparsity:sparsity for geom step 2
    nrows_g=15 nrows=4 sparsity=56.6933 nnzs=12756, refcount: 9>
  <dData2D:(temp array for extrapolation) n=12756 m=1, refcount: 1>
refcount: 1>
Note: For starting DM, Qtot, Tr[D*S] =         11.00000000         11.07061097
No. of atoms with KB's overlaping orbs in proc 0. Max # of overlaps:      55     423
New grid distribution:   1
           1       1:   18    1:    9    1:    6
           2       1:   18    1:    9    7:   12
           3       1:   18    1:    9   13:   18
           4       1:   18   10:   18    1:    6
           5       1:   18   10:   18    7:   12
           6       1:   18   10:   18   13:   18

InitMesh: MESH =    36 x    36 x    36 =       46656
InitMesh: (bp) =    18 x    18 x    18 =        5832
InitMesh: Mesh cutoff (required, used) =   500.000   568.608 Ry
ExtMesh (bp) on 0 =   158 x   149 x   146 =     3437132
New grid distribution:   2
           1       1:   18    1:    6    1:    9
           2      10:   18    7:   18    1:    9
           3       1:   18    1:    6   10:   18
           4       1:    9    7:   18    1:    9
           5      10:   18    7:   18   10:   18
           6       1:    9    7:   18   10:   18
New grid distribution:   3
           1       1:   18    1:    6    1:    9
           2      10:   18    7:   18    1:    9
           3       1:   18    1:    6   10:   18
           4       1:    9    7:   18    1:    9
           5      10:   18    7:   18   10:   18
           6       1:    9    7:   18   10:   18
Setting up quadratic distribution...
ExtMesh (bp) on 0 =   158 x   146 x   149 =     3437132
PhiOnMesh: Number of (b)points on node 0 =                  972
PhiOnMesh: nlist on node 0 =               128708

        iscf     Eharris(eV)        E_KS(eV)     FreeEng(eV)     dDmax    Ef(eV) dHmax(eV)
   scf:    1     -963.532204     -963.664145     -963.665419  0.238897 -4.201001  0.299296
   scf:    2     -963.655649     -963.664099     -963.665305  0.109672 -4.116527  0.298050
   scf:    3     -963.670382     -963.668304     -963.669542  0.055521 -4.158786  0.001714
   scf:    4     -963.668304     -963.668304     -963.669542  0.000072 -4.158296  0.001260
   scf:    5     -963.668304     -963.668304     -963.669542  0.000096 -4.157663  0.000586

SCF Convergence by DM+H criterion
max |DM_out - DM_in|         :     0.0000962768
max |H_out - H_in|      (eV) :     0.0005856589
SCF cycle converged after 5 iterations

Using DM_out to compute the final energy and forces
No. of atoms with KB's overlaping orbs in proc 0. Max # of overlaps:      55     423

siesta: E_KS(eV) =             -963.6683

siesta: Atomic forces (eV/Ang):
----------------------------------------
   Tot   -0.000000   -0.000000    0.000000
----------------------------------------
   Max    0.000000
   Res    0.000000    sqrt( Sum f_i^2 / 3N )
----------------------------------------
   Max    0.000000    constrained

Stress-tensor-Voigt (kbar):      -18.81      -18.81      -18.81       -0.01       -0.01       -0.01
(Free)E + p*V (eV/cell)     -963.4284
Target enthalpy (eV/cell)     -963.6695

siesta: Stress tensor (static) (eV/Ang**3):
        -0.011741   -0.000004   -0.000004
        -0.000004   -0.011741   -0.000004
        -0.000004   -0.000004   -0.011741

siesta: Pressure (static):         18.81061271  kBar

siesta: Stress tensor (total) (eV/Ang**3):
        -0.011741   -0.000004   -0.000004
        -0.000004   -0.011741   -0.000004
        -0.000004   -0.000004   -0.011741

siesta: Pressure (total):         18.81061271  kBar

                     ====================================
                        Begin Broyden opt. move =      3
                     ====================================

outcoor: Atomic coordinates (fractional):                   
   -0.00000000   -0.00000000   -0.00000000   1       1  Au.gga
 Kpoints in:         1800 . Kpoints trimmed:         1688

siesta: k-grid: Number of k-points =  1688
siesta: k-grid: Cutoff (effective) =    23.308 Ang
siesta: k-grid: Supercell and displacements
siesta: k-grid:   15   0   0      0.000
siesta: k-grid:    0  15   0      0.000
siesta: k-grid:    0   0  15      0.000

superc: Internal auxiliary supercell:     9 x     9 x     9  =     729
superc: Number of atoms, orbitals, and projectors:    729  10935  11664

outcell: Unit cell vectors (Ang):
        0.000024    2.197521    2.197521
        2.197521    0.000024    2.197521
        2.197521    2.197521    0.000024

outcell: Cell vector modules (Ang)   :    3.107763    3.107763    3.107763
outcell: Cell angles (23,13,12) (deg):     59.9993     59.9993     59.9993
outcell: Cell volume (Ang**3)        :     21.2237
<dSpData1D:S at geom step 3
  <sparsity:sparsity for geom step 3
    nrows_g=15 nrows=4 sparsity=56.6933 nnzs=12756, refcount: 7>
  <dData1D:(new from dSpData1D) n=12756, refcount: 1>
refcount: 1>
new_DM -- step:     4
Re-using DM from previous geometries...
Number of DMs in history: 1
 DM extrapolation coefficients: 
1   1.00000
New DM after history re-use:
<dSpData2D:SpM extrapolated using coords
  <sparsity:sparsity for geom step 3
    nrows_g=15 nrows=4 sparsity=56.6933 nnzs=12756, refcount: 9>
  <dData2D:(temp array for extrapolation) n=12756 m=1, refcount: 1>
refcount: 1>
Note: For starting DM, Qtot, Tr[D*S] =         11.00000000         10.97488693
No. of atoms with KB's overlaping orbs in proc 0. Max # of overlaps:      55     423
New grid distribution:   1
           1       1:   18    1:    9    1:    6
           2       1:   18    1:    9    7:   12
           3       1:   18    1:    9   13:   18
           4       1:   18   10:   18    1:    6
           5       1:   18   10:   18    7:   12
           6       1:   18   10:   18   13:   18

InitMesh: MESH =    36 x    36 x    36 =       46656
InitMesh: (bp) =    18 x    18 x    18 =        5832
InitMesh: Mesh cutoff (required, used) =   500.000   556.285 Ry
ExtMesh (bp) on 0 =   158 x   149 x   146 =     3437132
New grid distribution:   2
           1       1:   18    1:    6    1:    9
           2      10:   18    7:   18    1:    9
           3       1:   18    1:    6   10:   18
           4       1:    9    7:   18    1:    9
           5      10:   18    7:   18   10:   18
           6       1:    9    7:   18   10:   18
New grid distribution:   3
           1       1:   18    1:    6    1:    9
           2      10:   18    7:   18    1:    9
           3       1:   18    1:    6   10:   18
           4       1:    9    7:   18    1:    9
           5      10:   18    7:   18   10:   18
           6       1:    9    7:   18   10:   18
Setting up quadratic distribution...
ExtMesh (bp) on 0 =   158 x   146 x   149 =     3437132
PhiOnMesh: Number of (b)points on node 0 =                  972
PhiOnMesh: nlist on node 0 =               124803

        iscf     Eharris(eV)        E_KS(eV)     FreeEng(eV)     dDmax    Ef(eV) dHmax(eV)
   scf:    1     -963.712825     -963.668726     -963.670028  0.091385 -4.196132  0.114652
   scf:    2     -963.667386     -963.668675     -963.669998  0.039577 -4.227695  0.115682
   scf:    3     -963.669634     -963.669311     -963.670624  0.019882 -4.212153  0.000800
   scf:    4     -963.669311     -963.669311     -963.670624  0.000063 -4.212318  0.000603

SCF Convergence by DM+H criterion
max |DM_out - DM_in|         :     0.0000633121
max |H_out - H_in|      (eV) :     0.0006027904
SCF cycle converged after 4 iterations

Using DM_out to compute the final energy and forces
No. of atoms with KB's overlaping orbs in proc 0. Max # of overlaps:      55     423

siesta: E_KS(eV) =             -963.6693

siesta: Atomic forces (eV/Ang):
----------------------------------------
   Tot   -0.000000    0.000000    0.000000
----------------------------------------
   Max    0.000000
   Res    0.000000    sqrt( Sum f_i^2 / 3N )
----------------------------------------
   Max    0.000000    constrained

Stress-tensor-Voigt (kbar):       12.21       12.21       12.21       -0.01       -0.01       -0.01
(Free)E + p*V (eV/cell)     -963.8323
Target enthalpy (eV/cell)     -963.6706

siesta: Stress tensor (static) (eV/Ang**3):
         0.007620   -0.000006   -0.000006
        -0.000006    0.007620   -0.000006
        -0.000006   -0.000006    0.007620

siesta: Pressure (static):        -12.20811542  kBar

siesta: Stress tensor (total) (eV/Ang**3):
         0.007620   -0.000006   -0.000006
        -0.000006    0.007620   -0.000006
        -0.000006   -0.000006    0.007620

siesta: Pressure (total):        -12.20811542  kBar

                     ====================================
                        Begin Broyden opt. move =      4
                     ====================================

outcoor: Atomic coordinates (fractional):                   
    0.00000000   -0.00000000   -0.00000000   1       1  Au.gga
 Kpoints in:         1800 . Kpoints trimmed:         1688

siesta: k-grid: Number of k-points =  1688
siesta: k-grid: Cutoff (effective) =    23.145 Ang
siesta: k-grid: Supercell and displacements
siesta: k-grid:   15   0   0      0.000
siesta: k-grid:    0  15   0      0.000
siesta: k-grid:    0   0  15      0.000

superc: Internal auxiliary supercell:     9 x     9 x     9  =     729
superc: Number of atoms, orbitals, and projectors:    729  10935  11664

outcell: Unit cell vectors (Ang):
        0.000033    2.182185    2.182185
        2.182185    0.000033    2.182185
        2.182185    2.182185    0.000033

outcell: Cell vector modules (Ang)   :    3.086076    3.086076    3.086076
outcell: Cell angles (23,13,12) (deg):     59.9990     59.9990     59.9990
outcell: Cell volume (Ang**3)        :     20.7824
<dSpData1D:S at geom step 4
  <sparsity:sparsity for geom step 4
    nrows_g=15 nrows=4 sparsity=56.6933 nnzs=12756, refcount: 7>
  <dData1D:(new from dSpData1D) n=12756, refcount: 1>
refcount: 1>
new_DM -- step:     5
Re-using DM from previous geometries...
Number of DMs in history: 1
 DM extrapolation coefficients: 
1   1.00000
New DM after history re-use:
<dSpData2D:SpM extrapolated using coords
  <sparsity:sparsity for geom step 4
    nrows_g=15 nrows=4 sparsity=56.6933 nnzs=12756, refcount: 9>
  <dData2D:(temp array for extrapolation) n=12756 m=1, refcount: 1>
refcount: 1>
Note: For starting DM, Qtot, Tr[D*S] =         11.00000000         11.01645362
No. of atoms with KB's overlaping orbs in proc 0. Max # of overlaps:      55     423
New grid distribution:   1
           1       1:   18    1:    9    1:    6
           2       1:   18    1:    9    7:   12
           3       1:   18    1:    9   13:   18
           4       1:   18   10:   18    1:    6
           5       1:   18   10:   18    7:   12
           6       1:   18   10:   18   13:   18

InitMesh: MESH =    36 x    36 x    36 =       46656
InitMesh: (bp) =    18 x    18 x    18 =        5832
InitMesh: Mesh cutoff (required, used) =   500.000   564.129 Ry
ExtMesh (bp) on 0 =   158 x   149 x   146 =     3437132
New grid distribution:   2
           1       1:   18    1:    6    1:    9
           2      10:   18    7:   18    1:    9
           3       1:   18    1:    6   10:   18
           4       1:    9    7:   18    1:    9
           5      10:   18    7:   18   10:   18
           6       1:    9    7:   18   10:   18
New grid distribution:   3
           1       1:   18    1:    6    1:    9
           2      10:   18    7:   18    1:    9
           3       1:   18    1:    6   10:   18
           4       1:    9    7:   18    1:    9
           5      10:   18    7:   18   10:   18
           6       1:    9    7:   18   10:   18
Setting up quadratic distribution...
ExtMesh (bp) on 0 =   158 x   146 x   149 =     3437132
PhiOnMesh: Number of (b)points on node 0 =                  972
PhiOnMesh: nlist on node 0 =               127140

        iscf     Eharris(eV)        E_KS(eV)     FreeEng(eV)     dDmax    Ef(eV) dHmax(eV)
   scf:    1     -963.639354     -963.669913     -963.671189  0.053074 -4.188720  0.072755
   scf:    2     -963.669434     -963.669922     -963.671181  0.025983 -4.168308  0.072752
   scf:    3     -963.670280     -963.670164     -963.671432  0.013079 -4.178425  0.000469
   scf:    4     -963.670164     -963.670164     -963.671432  0.000018 -4.178313  0.000350

SCF Convergence by DM+H criterion
max |DM_out - DM_in|         :     0.0000175969
max |H_out - H_in|      (eV) :     0.0003498321
SCF cycle converged after 4 iterations

Using DM_out to compute the final energy and forces
No. of atoms with KB's overlaping orbs in proc 0. Max # of overlaps:      55     423

siesta: E_KS(eV) =             -963.6702

siesta: Atomic forces (eV/Ang):
----------------------------------------
   Tot    0.000000    0.000000    0.000000
----------------------------------------
   Max    0.000000
   Res    0.000000    sqrt( Sum f_i^2 / 3N )
----------------------------------------
   Max    0.000000    constrained

Stress-tensor-Voigt (kbar):       -6.70       -6.70       -6.70       -0.01       -0.01       -0.01
(Free)E + p*V (eV/cell)     -963.5845
Target enthalpy (eV/cell)     -963.6714

siesta: Stress tensor (static) (eV/Ang**3):
        -0.004185   -0.000005   -0.000005
        -0.000005   -0.004185   -0.000005
        -0.000005   -0.000005   -0.004185

siesta: Pressure (static):          6.70455796  kBar

siesta: Stress tensor (total) (eV/Ang**3):
        -0.004185   -0.000005   -0.000005
        -0.000005   -0.004185   -0.000005
        -0.000005   -0.000005   -0.004185

siesta: Pressure (total):          6.70455796  kBar

                     ====================================
                        Begin Broyden opt. move =      5
                     ====================================

outcoor: Atomic coordinates (fractional):                   
    0.00000000   -0.00000000    0.00000000   1       1  Au.gga
 Kpoints in:         1800 . Kpoints trimmed:         1688

siesta: k-grid: Number of k-points =  1688
siesta: k-grid: Cutoff (effective) =    23.227 Ang
siesta: k-grid: Supercell and displacements
siesta: k-grid:   15   0   0      0.000
siesta: k-grid:    0  15   0      0.000
siesta: k-grid:    0   0  15      0.000

superc: Internal auxiliary supercell:     9 x     9 x     9  =     729
superc: Number of atoms, orbitals, and projectors:    729  10935  11664

outcell: Unit cell vectors (Ang):
        0.000029    2.189924    2.189924
        2.189924    0.000029    2.189924
        2.189924    2.189924    0.000029

outcell: Cell vector modules (Ang)   :    3.097020    3.097020    3.097020
outcell: Cell angles (23,13,12) (deg):     59.9991     59.9991     59.9991
outcell: Cell volume (Ang**3)        :     21.0043
<dSpData1D:S at geom step 5
  <sparsity:sparsity for geom step 5
    nrows_g=15 nrows=4 sparsity=56.6933 nnzs=12756, refcount: 7>
  <dData1D:(new from dSpData1D) n=12756, refcount: 1>
refcount: 1>
new_DM -- step:     6
Re-using DM from previous geometries...
Number of DMs in history: 1
 DM extrapolation coefficients: 
1   1.00000
New DM after history re-use:
<dSpData2D:SpM extrapolated using coords
  <sparsity:sparsity for geom step 5
    nrows_g=15 nrows=4 sparsity=56.6933 nnzs=12756, refcount: 9>
  <dData2D:(temp array for extrapolation) n=12756 m=1, refcount: 1>
refcount: 1>
No. of atoms with KB's overlaping orbs in proc 0. Max # of overlaps:      55     423
New grid distribution:   1
           1       1:   18    1:    9    1:    6
           2       1:   18    1:    9    7:   12
           3       1:   18    1:    9   13:   18
           4       1:   18   10:   18    1:    6
           5       1:   18   10:   18    7:   12
           6       1:   18   10:   18   13:   18

InitMesh: MESH =    36 x    36 x    36 =       46656
InitMesh: (bp) =    18 x    18 x    18 =        5832
InitMesh: Mesh cutoff (required, used) =   500.000   560.150 Ry
ExtMesh (bp) on 0 =   158 x   149 x   146 =     3437132
New grid distribution:   2
           1       1:   18    1:    6    1:    9
           2      10:   18    7:   18    1:    9
           3       1:   18    1:    6   10:   18
           4       1:    9    7:   18    1:    9
           5      10:   18    7:   18   10:   18
           6       1:    9    7:   18   10:   18
New grid distribution:   3
           1       1:   18    1:    6    1:    9
           2      10:   18    7:   18    1:    9
           3       1:   18    1:    6   10:   18
           4       1:    9    7:   18    1:    9
           5      10:   18    7:   18   10:   18
           6       1:    9    7:   18   10:   18
Setting up quadratic distribution...
ExtMesh (bp) on 0 =   158 x   146 x   149 =     3437132
PhiOnMesh: Number of (b)points on node 0 =                  972
PhiOnMesh: nlist on node 0 =               126000

        iscf     Eharris(eV)        E_KS(eV)     FreeEng(eV)     dDmax    Ef(eV) dHmax(eV)
   scf:    1     -963.685179     -963.670325     -963.671613  0.027731 -4.190502  0.036877
   scf:    2     -963.670176     -963.670315     -963.671611  0.012945 -4.200760  0.037040
   scf:    3     -963.670419     -963.670383     -963.671675  0.006507 -4.195696  0.000250
   scf:    4     -963.670383     -963.670383     -963.671675  0.000016 -4.195750  0.000187

SCF Convergence by DM+H criterion
max |DM_out - DM_in|         :     0.0000158366
max |H_out - H_in|      (eV) :     0.0001873273
SCF cycle converged after 4 iterations

Using DM_out to compute the final energy and forces
No. of atoms with KB's overlaping orbs in proc 0. Max # of overlaps:      55     423

siesta: E_KS(eV) =             -963.6704

siesta: Atomic forces (eV/Ang):
----------------------------------------
   Tot   -0.000000    0.000000   -0.000000
----------------------------------------
   Max    0.000000
   Res    0.000000    sqrt( Sum f_i^2 / 3N )
----------------------------------------
   Max    0.000000    constrained

Stress-tensor-Voigt (kbar):        2.54        2.54        2.54       -0.01       -0.01       -0.01
(Free)E + p*V (eV/cell)     -963.7050
Target enthalpy (eV/cell)     -963.6717

siesta: Stress tensor (static) (eV/Ang**3):
         0.001588   -0.000006   -0.000006
        -0.000006    0.001588   -0.000006
        -0.000006   -0.000006    0.001588

siesta: Pressure (static):         -2.54428487  kBar

siesta: Stress tensor (total) (eV/Ang**3):
         0.001588   -0.000006   -0.000006
        -0.000006    0.001588   -0.000006
        -0.000006   -0.000006    0.001588

siesta: Pressure (total):         -2.54428487  kBar

                     ====================================
                        Begin Broyden opt. move =      6
                     ====================================

outcoor: Atomic coordinates (fractional):                   
    0.00000000   -0.00000000   -0.00000000   1       1  Au.gga
 Kpoints in:         1800 . Kpoints trimmed:         1688

siesta: k-grid: Number of k-points =  1688
siesta: k-grid: Cutoff (effective) =    23.198 Ang
siesta: k-grid: Supercell and displacements
siesta: k-grid:   15   0   0      0.000
siesta: k-grid:    0  15   0      0.000
siesta: k-grid:    0   0  15      0.000

superc: Internal auxiliary supercell:     9 x     9 x     9  =     729
superc: Number of atoms, orbitals, and projectors:    729  10935  11664

outcell: Unit cell vectors (Ang):
        0.000031    2.187114    2.187114
        2.187114    0.000031    2.187114
        2.187114    2.187114    0.000031

outcell: Cell vector modules (Ang)   :    3.093046    3.093046    3.093046
outcell: Cell angles (23,13,12) (deg):     59.9991     59.9991     59.9991
outcell: Cell volume (Ang**3)        :     20.9235
<dSpData1D:S at geom step 6
  <sparsity:sparsity for geom step 6
    nrows_g=15 nrows=4 sparsity=56.6933 nnzs=12756, refcount: 7>
  <dData1D:(new from dSpData1D) n=12756, refcount: 1>
refcount: 1>
new_DM -- step:     7
Re-using DM from previous geometries...
Number of DMs in history: 1
 DM extrapolation coefficients: 
1   1.00000
New DM after history re-use:
<dSpData2D:SpM extrapolated using coords
  <sparsity:sparsity for geom step 6
    nrows_g=15 nrows=4 sparsity=56.6933 nnzs=12756, refcount: 9>
  <dData2D:(temp array for extrapolation) n=12756 m=1, refcount: 1>
refcount: 1>
No. of atoms with KB's overlaping orbs in proc 0. Max # of overlaps:      55     423
New grid distribution:   1
           1       1:   18    1:    9    1:    6
           2       1:   18    1:    9    7:   12
           3       1:   18    1:    9   13:   18
           4       1:   18   10:   18    1:    6
           5       1:   18   10:   18    7:   12
           6       1:   18   10:   18   13:   18

InitMesh: MESH =    36 x    36 x    36 =       46656
InitMesh: (bp) =    18 x    18 x    18 =        5832
InitMesh: Mesh cutoff (required, used) =   500.000   561.590 Ry
ExtMesh (bp) on 0 =   158 x   149 x   146 =     3437132
New grid distribution:   2
           1       1:   18    1:    6    1:    9
           2      10:   18    7:   18    1:    9
           3       1:   18    1:    6   10:   18
           4       1:    9    7:   18    1:    9
           5      10:   18    7:   18   10:   18
           6       1:    9    7:   18   10:   18
New grid distribution:   3
           1       1:   18    1:    6    1:    9
           2      10:   18    7:   18    1:    9
           3       1:   18    1:    6   10:   18
           4       1:    9    7:   18    1:    9
           5      10:   18    7:   18   10:   18
           6       1:    9    7:   18   10:   18
Setting up quadratic distribution...
ExtMesh (bp) on 0 =   158 x   146 x   149 =     3437132
PhiOnMesh: Number of (b)points on node 0 =                  972
PhiOnMesh: nlist on node 0 =               126403

        iscf     Eharris(eV)        E_KS(eV)     FreeEng(eV)     dDmax    Ef(eV) dHmax(eV)
   scf:    1     -963.664962     -963.670429     -963.671714  0.008563 -4.191447  0.013362
   scf:    2     -963.670418     -963.670432     -963.671714  0.004714 -4.187719  0.013399
   scf:    3     -963.670442     -963.670439     -963.671723  0.002372 -4.189563  0.000089
   scf:    4     -963.670439     -963.670439     -963.671723  0.000005 -4.189543  0.000067

SCF Convergence by DM+H criterion
max |DM_out - DM_in|         :     0.0000045922
max |H_out - H_in|      (eV) :     0.0000665763
SCF cycle converged after 4 iterations

Using DM_out to compute the final energy and forces
No. of atoms with KB's overlaping orbs in proc 0. Max # of overlaps:      55     423

siesta: E_KS(eV) =             -963.6704

siesta: Atomic forces (eV/Ang):
----------------------------------------
   Tot    0.000000    0.000000   -0.000000
----------------------------------------
   Max    0.000000
   Res    0.000000    sqrt( Sum f_i^2 / 3N )
----------------------------------------
   Max    0.000000    constrained

Stress-tensor-Voigt (kbar):       -0.64       -0.64       -0.64       -0.01       -0.01       -0.01
(Free)E + p*V (eV/cell)     -963.6634
Target enthalpy (eV/cell)     -963.6717

siesta: Stress tensor (static) (eV/Ang**3):
        -0.000396   -0.000005   -0.000005
        -0.000005   -0.000396   -0.000005
        -0.000005   -0.000005   -0.000396

siesta: Pressure (static):          0.63515841  kBar

siesta: Stress tensor (total) (eV/Ang**3):
        -0.000396   -0.000005   -0.000005
        -0.000005   -0.000396   -0.000005
        -0.000005   -0.000005   -0.000396

siesta: Pressure (total):          0.63515841  kBar

                     ====================================
                        Begin Broyden opt. move =      7
                     ====================================

outcoor: Atomic coordinates (fractional):                   
    0.00000000   -0.00000000    0.00000000   1       1  Au.gga
 Kpoints in:         1800 . Kpoints trimmed:         1688

siesta: k-grid: Number of k-points =  1688
siesta: k-grid: Cutoff (effective) =    23.205 Ang
siesta: k-grid: Supercell and displacements
siesta: k-grid:   15   0   0      0.000
siesta: k-grid:    0  15   0      0.000
siesta: k-grid:    0   0  15      0.000

superc: Internal auxiliary supercell:     9 x     9 x     9  =     729
superc: Number of atoms, orbitals, and projectors:    729  10935  11664

outcell: Unit cell vectors (Ang):
        0.000031    2.187795    2.187795
        2.187795    0.000031    2.187795
        2.187795    2.187795    0.000031

outcell: Cell vector modules (Ang)   :    3.094010    3.094010    3.094010
outcell: Cell angles (23,13,12) (deg):     59.9991     59.9991     59.9991
outcell: Cell volume (Ang**3)        :     20.9431
<dSpData1D:S at geom step 7
  <sparsity:sparsity for geom step 7
    nrows_g=15 nrows=4 sparsity=56.6933 nnzs=12756, refcount: 7>
  <dData1D:(new from dSpData1D) n=12756, refcount: 1>
refcount: 1>
new_DM -- step:     8
Re-using DM from previous geometries...
Number of DMs in history: 1
 DM extrapolation coefficients: 
1   1.00000
New DM after history re-use:
<dSpData2D:SpM extrapolated using coords
  <sparsity:sparsity for geom step 7
    nrows_g=15 nrows=4 sparsity=56.6933 nnzs=12756, refcount: 9>
  <dData2D:(temp array for extrapolation) n=12756 m=1, refcount: 1>
refcount: 1>
No. of atoms with KB's overlaping orbs in proc 0. Max # of overlaps:      55     423
New grid distribution:   1
           1       1:   18    1:    9    1:    6
           2       1:   18    1:    9    7:   12
           3       1:   18    1:    9   13:   18
           4       1:   18   10:   18    1:    6
           5       1:   18   10:   18    7:   12
           6       1:   18   10:   18   13:   18

InitMesh: MESH =    36 x    36 x    36 =       46656
InitMesh: (bp) =    18 x    18 x    18 =        5832
InitMesh: Mesh cutoff (required, used) =   500.000   561.240 Ry
ExtMesh (bp) on 0 =   158 x   149 x   146 =     3437132
New grid distribution:   2
           1       1:   18    1:    6    1:    9
           2      10:   18    7:   18    1:    9
           3       1:   18    1:    6   10:   18
           4       1:    9    7:   18    1:    9
           5      10:   18    7:   18   10:   18
           6       1:    9    7:   18   10:   18
New grid distribution:   3
           1       1:   18    1:    6    1:    9
           2      10:   18    7:   18    1:    9
           3       1:   18    1:    6   10:   18
           4       1:    9    7:   18    1:    9
           5      10:   18    7:   18   10:   18
           6       1:    9    7:   18   10:   18
Setting up quadratic distribution...
ExtMesh (bp) on 0 =   158 x   146 x   149 =     3437132
PhiOnMesh: Number of (b)points on node 0 =                  972
PhiOnMesh: nlist on node 0 =               126306

        iscf     Eharris(eV)        E_KS(eV)     FreeEng(eV)     dDmax    Ef(eV) dHmax(eV)
   scf:    1     -963.671762     -963.670440     -963.671726  0.002228 -4.190578  0.003222
   scf:    2     -963.670438     -963.670439     -963.671726  0.001135 -4.191477  0.003232
   scf:    3     -963.670441     -963.670440     -963.671726  0.000571 -4.191032  0.000022
   scf:    4     -963.670440     -963.670440     -963.671726  0.000001 -4.191037  0.000016

SCF Convergence by DM+H criterion
max |DM_out - DM_in|         :     0.0000012039
max |H_out - H_in|      (eV) :     0.0000162209
SCF cycle converged after 4 iterations

Using DM_out to compute the final energy and forces
No. of atoms with KB's overlaping orbs in proc 0. Max # of overlaps:      55     423

siesta: E_KS(eV) =             -963.6704

siesta: Atomic forces (eV/Ang):
----------------------------------------
   Tot    0.000000    0.000000    0.000000
----------------------------------------
   Max    0.000000
   Res    0.000000    sqrt( Sum f_i^2 / 3N )
----------------------------------------
   Max    0.000000    constrained

Stress-tensor-Voigt (kbar):       -0.03       -0.03       -0.03       -0.01       -0.01       -0.01
(Free)E + p*V (eV/cell)     -963.6713
Target enthalpy (eV/cell)     -963.6717

siesta: Stress tensor (static) (eV/Ang**3):
        -0.000021   -0.000005   -0.000005
        -0.000005   -0.000021   -0.000005
        -0.000005   -0.000005   -0.000021

siesta: Pressure (static):          0.03407592  kBar

siesta: Stress tensor (total) (eV/Ang**3):
        -0.000021   -0.000005   -0.000005
        -0.000005   -0.000021   -0.000005
        -0.000005   -0.000005   -0.000021

siesta: Pressure (total):          0.03407592  kBar

outcoor: Relaxed atomic coordinates (fractional):           
    0.00000000   -0.00000000    0.00000000   1       1  Au.gga

outcell: Unit cell vectors (Ang):
        0.000031    2.187795    2.187795
        2.187795    0.000031    2.187795
        2.187795    2.187795    0.000031

outcell: Cell vector modules (Ang)   :    3.094010    3.094010    3.094010
outcell: Cell angles (23,13,12) (deg):     59.9991     59.9991     59.9991
outcell: Cell volume (Ang**3)        :     20.9431

coxmol: Writing XMOL coordinates into file Gold.xyz                                                            

siesta: Program's energy decomposition (eV):
siesta: Ebs     =       -98.557045
siesta: Eions   =      1090.328175
siesta: Ena     =        30.693455
siesta: Ekin    =       645.069670
siesta: Enl     =      -341.180720
siesta: Eso     =         0.000000
siesta: Eldau   =         0.000000
siesta: DEna    =         3.910026
siesta: DUscf   =         0.176347
siesta: DUext   =         0.000000
siesta: Enegf   =         0.000000
siesta: Exc     =      -212.011044
siesta: eta*DQ  =         0.000000
siesta: Emadel  =         0.000000
siesta: Emeta   =         0.000000
siesta: Emolmec =         0.000000
siesta: Ekinion =         0.000000
siesta: Eharris =      -963.670440
siesta: Etot    =      -963.670440
siesta: FreeEng =      -963.671726

siesta: Final energy (eV):
siesta:  Band Struct. =     -98.557045
siesta:       Kinetic =     645.069670
siesta:       Hartree =     128.371819
siesta:       Eldau   =       0.000000
siesta:       Eso     =       0.000000
siesta:    Ext. field =       0.000000
siesta:       Enegf   =       0.000000
siesta:   Exch.-corr. =    -212.011044
siesta:  Ion-electron =    -799.219486
siesta:       Ion-ion =    -725.881399
siesta:       Ekinion =       0.000000
siesta:         Total =    -963.670440
siesta:         Fermi =      -4.191037

siesta: Stress tensor (static) (eV/Ang**3):
siesta:    -0.000021   -0.000005   -0.000005
siesta:    -0.000005   -0.000021   -0.000005
siesta:    -0.000005   -0.000005   -0.000021

siesta: Constrained stress tensor (static) (eV/Ang**3):
siesta:    -0.000021   -0.000005   -0.000005
siesta:    -0.000005   -0.000021   -0.000005
siesta:    -0.000005   -0.000005   -0.000021

siesta: Cell volume =         20.943095 Ang**3

siesta: Pressure (static):
siesta:                Solid            Molecule  Units
siesta:           0.00000023          0.00000023  Ry/Bohr**3
siesta:           0.00002127          0.00002127  eV/Ang**3
siesta:           0.03407592          0.03407592  kBar
(Free)E+ p_basis*V_orbitals  =        -962.102357
(Free)Eharris+ p_basis*V_orbitals  =        -962.102357
>> End of run:  28-AUG-2019  14:21:49
Job completed
