
                           ***********************       
                           *  WELCOME TO SIESTA  *       
                           ***********************       

reinit: Reading from input.fdf

reinit: -----------------------------------------------------------------------
reinit: System Name: 
reinit: -----------------------------------------------------------------------
reinit: System Label: Graphene
reinit: -----------------------------------------------------------------------
Siesta Version: siesta-4.1--736
Architecture  : unknown
Compiler flags: gfortran -O2 -fPIC -ftree-vectorize -fopenmp
PP flags      : -DFC_HAVE_ABORT
Libraries     : -fopenmp
SERIAL version

* Running in serial mode
* Running 4 OpenMP threads.
* Running 4 processes.
* OpenMP version 201511
* OpenMP runtime schedule DYNAMIC, chunks 1
** OpenMP runtime schedule DYNAMIC, chunks 32
>> Start of run:  10-JUL-2020  15:54:01

initatom: Reading input for the pseudopotentials and atomic orbitals ----------
Species number:   1 Atomic number:    6 Label: C

Ground state valence configuration:   2s02  2p02
Reading pseudopotential information in formatted form from C.psf

Valence configuration for pseudopotential generation:
2s( 2.00) rc: 1.54
2p( 2.00) rc: 1.54
3d( 0.00) rc: 1.54
4f( 0.00) rc: 1.54
For C, standard SIESTA heuristics set lmxkb to 3
 (one more than the basis l, including polarization orbitals).
Use PS.lmax or PS.KBprojectors blocks to override.

<basis_specs>
===============================================================================
C                    Z=   6    Mass=  12.010        Charge= 0.17977+309
Lmxo=1 Lmxkb= 3    BasisType=split      Semic=F
L=0  Nsemic=0  Cnfigmx=2
          n=1  nzeta=2  polorb=0
            splnorm:   0.15000    
               vcte:    0.0000    
               rinn:    0.0000    
               qcoe:    0.0000    
               qyuk:    0.0000    
               qwid:   0.10000E-01
                rcs:    0.0000      0.0000    
            lambdas:    1.0000      1.0000    
L=1  Nsemic=0  Cnfigmx=2
          n=1  nzeta=2  polorb=1
            splnorm:   0.15000    
               vcte:    0.0000    
               rinn:    0.0000    
               qcoe:    0.0000    
               qyuk:    0.0000    
               qwid:   0.10000E-01
                rcs:    0.0000      0.0000    
            lambdas:    1.0000      1.0000    
-------------------------------------------------------------------------------
L=0  Nkbl=1  erefs: 0.17977+309
L=1  Nkbl=1  erefs: 0.17977+309
L=2  Nkbl=1  erefs: 0.17977+309
L=3  Nkbl=1  erefs: 0.17977+309
===============================================================================
</basis_specs>

atom: Called for C                     (Z =   6)

read_vps: Pseudopotential generation method:
read_vps: ATM3      Troullier-Martins                       
Total valence charge:    4.00000

read_vps: Pseudopotential includes a core correction:
read_vps: Pseudo-core for xc-correction

xc_check: Exchange-correlation functional:
xc_check: GGA Perdew, Burke & Ernzerhof 1996
V l=0 = -2*Zval/r beyond r=  1.5227
V l=1 = -2*Zval/r beyond r=  1.5227
V l=2 = -2*Zval/r beyond r=  1.5227
V l=3 = -2*Zval/r beyond r=  1.5038
All V_l potentials equal beyond r=  1.5227
This should be close to max(r_c) in ps generation
All pots = -2*Zval/r beyond r=  1.5227

VLOCAL1: 99.0% of the norm of Vloc inside     18.722 Ry
VLOCAL1: 99.9% of the norm of Vloc inside     42.668 Ry
atom: Maximum radius for 4*pi*r*r*local-pseudopot. charge    1.83678
atom: Maximum radius for r*vlocal+2*Zval:    1.58088
GHOST: No ghost state for L =  0
GHOST: No ghost state for L =  1
GHOST: No ghost state for L =  2
GHOST: No ghost state for L =  3

KBgen: Kleinman-Bylander projectors: 
   l= 0   rc=  1.704034   el= -1.009801   Ekb=  5.335044   kbcos=  0.316824
   l= 1   rc=  1.704034   el= -0.388707   Ekb= -3.785862   kbcos= -0.366464
   l= 2   rc=  1.791422   el=  0.001971   Ekb= -0.970471   kbcos= -0.009212
   l= 3   rc=  1.859892   el=  0.003065   Ekb= -0.399525   kbcos= -0.001223

KBgen: Total number of  Kleinman-Bylander projectors:   16
atom: -------------------------------------------------------------------------

atom: SANKEY-TYPE ORBITALS:
atom: Selected multiple-zeta basis: split     

SPLIT: Orbitals with angular momentum L= 0

SPLIT: Basis orbitals for state 2s

SPLIT: PAO cut-off radius determined from an
SPLIT: energy shift=  0.002205 Ry

   izeta = 1
                 lambda =    1.000000
                     rc =    5.382558
                 energy =   -1.007983
                kinetic =    0.829025
    potential(screened) =   -1.837009
       potential(ionic) =   -5.376592

   izeta = 2
                 rmatch =    3.475094
              splitnorm =    0.150000
                 energy =   -0.876935
                kinetic =    1.279964
    potential(screened) =   -2.156899
       potential(ionic) =   -5.943761

SPLIT: Orbitals with angular momentum L= 1

SPLIT: Basis orbitals for state 2p

SPLIT: PAO cut-off radius determined from an
SPLIT: energy shift=  0.002205 Ry

   izeta = 1
                 lambda =    1.000000
                     rc =    6.740804
                 energy =   -0.386704
                kinetic =    2.327316
    potential(screened) =   -2.714020
       potential(ionic) =   -6.100339

   izeta = 2
                 rmatch =    3.792903
              splitnorm =    0.150000
                 energy =   -0.270625
                kinetic =    3.420974
    potential(screened) =   -3.691599
       potential(ionic) =   -7.453004

POLgen: Perturbative polarization orbital with L=  2

POLgen: Polarization orbital for state 2p

   izeta = 1
                     rc =    6.740804
                 energy =    0.975645
                kinetic =    2.058046
    potential(screened) =   -1.082401
       potential(ionic) =   -3.782952
atom: Total number of Sankey-type orbitals: 13

atm_pop: Valence configuration (for local Pseudopot. screening):
 2s( 2.00)                                                            
 2p( 2.00)                                                            
Vna: chval, zval:    4.00000   4.00000

Vna:  Cut-off radius for the neutral-atom potential:   6.740804
comcore: Pseudo-core radius Rcore=  1.791422

atom: _________________________________________________________________________

prinput: Basis input ----------------------------------------------------------

PAO.BasisType split     

%block ChemicalSpeciesLabel
    1    6 C                       # Species index, atomic number, species label
%endblock ChemicalSpeciesLabel

%block PAO.Basis                 # Define Basis set
C                     2                    # Species label, number of l-shells
 n=2   0   2                         # n, l, Nzeta 
   5.383      3.475   
   1.000      1.000   
 n=2   1   2 P   1                   # n, l, Nzeta, Polarization, NzetaPol
   6.741      3.793   
   1.000      1.000   
%endblock PAO.Basis

prinput: ----------------------------------------------------------------------

coor:   Atomic-coordinates input format  =     Fractional

siesta: Atomic coordinates (Bohr) and species
siesta:      0.00000   0.00000  18.89727  1        1
siesta:      2.71346   0.00000  18.89727  1        2

siesta: System type = slab      

initatomlists: Number of atoms, orbitals, and projectors:      2    26    32

coxmol: Writing XMOL coordinates into file Graphene.xyz                                                        

siesta: ******************** Simulation parameters ****************************
siesta:
siesta: The following are some of the parameters of the simulation.
siesta: A complete list of the parameters used, including default values,
siesta: can be found in file out.fdf
siesta:
redata: Spin configuration                          = none
redata: Number of spin components                   = 1
redata: Time-Reversal Symmetry                      = T
redata: Spin-spiral                                 = F
redata: Long output                                 =   F
redata: Number of Atomic Species                    =        1
redata: Charge density info will appear in .RHO file
redata: Write Mulliken Pop.                         = NO
redata: Mesh Cutoff                                 =   300.0000 Ry
redata: Net charge of the system                    =     0.0000 |e|
redata: Min. number of SCF Iter                     =        0
redata: Max. number of SCF Iter                     =     1000
redata: SCF mix quantity                            = Hamiltonian
redata: Mix DM or H after convergence               =   F
redata: Recompute H after scf cycle                 =   F
redata: Mix DM in first SCF step                    =   T
redata: Write Pulay info on disk                    =   F
redata: New DM Mixing Weight                        =     0.2500
redata: New DM Occupancy tolerance                  = 0.000000000001
redata: No kicks to SCF
redata: DM Mixing Weight for Kicks                  =     0.5000
redata: Require Harris convergence for SCF          =   F
redata: Harris energy tolerance for SCF             =     0.000100 eV
redata: Require DM convergence for SCF              =   T
redata: DM tolerance for SCF                        =     0.0001
redata: Require EDM convergence for SCF             =   F
redata: EDM tolerance for SCF                       =     0.001000 eV
redata: Require H convergence for SCF               =   T
redata: Hamiltonian tolerance for SCF               =     0.001000 eV
redata: Require (free) Energy convergence for SCF   =   F
redata: (free) Energy tolerance for SCF             =     0.000100 eV
redata: Using Saved Data (generic)                  =   F
redata: Use continuation files for DM               =   F
redata: Neglect nonoverlap interactions             =   F
redata: Method of Calculation                       = Diagonalization
redata: Divide and Conquer                          =   T
redata: Electronic Temperature                      =   299.9869 K
redata: Fix the spin of the system                  =   F
redata: Dynamics option                             = Broyden coord. optimization
redata: Variable cell                               =   F
redata: Maximum number of CG moves                  =      100
redata: Force tolerance                             =     0.0100 eV/Ang
mix.SCF: Pulay mixing                            = Pulay
mix.SCF:    Variant                              = stable
mix.SCF:    History steps                        = 2
mix.SCF:    Linear mixing weight                 =     0.250000
mix.SCF:    Mixing weight                        =     0.250000
mix.SCF:    SVD condition                        = 0.1000E-07
redata: ***********************************************************************

%block SCF.Mixers
  Pulay
%endblock SCF.Mixers

%block SCF.Mixer.Pulay
  # Mixing method
  method pulay
  variant stable

  # Mixing options
  weight 0.2500
  weight.linear 0.2500
  history 2
%endblock SCF.Mixer.Pulay

DM_history_depth set to one: no extrapolation allowed by default for geometry relaxation
Size of DM history Fstack: 1
Total number of electrons:     8.000000
Total ionic charge:     8.000000
 Kpoints in:          190 . Kpoints trimmed:          181

siesta: k-grid: Number of k-points =   181
siesta: k-grid: Cutoff (effective) =    10.000 Ang
siesta: k-grid: Supercell and displacements
siesta: k-grid:   19   0   0      0.000
siesta: k-grid:    0  19   0      0.000
siesta: k-grid:    0   0   1      0.000
Using current reciprocal lattice vectors for BandLinesScale
Beware any cell changes by the end of the run
Using current reciprocal lattice vectors for BandLinesScale
Beware any cell changes by the end of the run

superc: Internal auxiliary supercell:     9 x     9 x     1  =      81
superc: Number of atoms, orbitals, and projectors:    162   2106   2592


                     ====================================
                        Begin Broyden opt. move =      0
                     ====================================

outcoor: Atomic coordinates (fractional):                   
    0.00000000    0.00000000    0.50000000   1       1  C
    0.33333333    0.33333333    0.50000000   1       2  C

superc: Internal auxiliary supercell:     9 x     9 x     1  =      81
superc: Number of atoms, orbitals, and projectors:    162   2106   2592

outcell: Unit cell vectors (Ang):
        2.153849    1.243526    0.000000
        2.153849   -1.243526    0.000000
        0.000000    0.000000   20.000000

outcell: Cell vector modules (Ang)   :    2.487051    2.487051   20.000000
outcell: Cell angles (23,13,12) (deg):     90.0000     90.0000     60.0000
outcell: Cell volume (Ang**3)        :    107.1347
<dSpData1D:S at geom step 0
  <sparsity:sparsity for geom step 0
    nrows_g=26 nrows=26 sparsity=34.3609 nnzs=23228, refcount: 7>
  <dData1D:(new from dSpData1D) n=23228, refcount: 1>
refcount: 1>
new_DM -- step:     1
Initializing Density Matrix...
DM filled with atomic data:
<dSpData2D:DM initialized from atoms
  <sparsity:sparsity for geom step 0
    nrows_g=26 nrows=26 sparsity=34.3609 nnzs=23228, refcount: 8>
  <dData2D:DM n=23228 m=1, refcount: 1>
refcount: 1>

No. of atoms with KB's overlaping orbs in proc 0. Max # of overlaps:      30     268
New grid distribution:   1
           1       1:   12    1:   12    1:  108

InitMesh: MESH =    24 x    24 x   216 =      124416
InitMesh: (bp) =    12 x    12 x   108 =       15552
InitMesh: Mesh cutoff (required, used) =   300.000   322.366 Ry
ExtMesh (bp) on 0 =    92 x    92 x   188 =     1591232
PhiOnMesh: Number of (b)points on node 0 =                15552
PhiOnMesh: nlist on node 0 =               541618

stepf: Fermi-Dirac step function

siesta: Program's energy decomposition (eV):
siesta: Ebs     =       -99.696214
siesta: Eions   =       511.194752
siesta: Ena     =       113.354915
siesta: Ekin    =       221.319332
siesta: Enl     =       -22.785999
siesta: Eso     =         0.000000
siesta: Eldau   =         0.000000
siesta: DEna    =       -13.711533
siesta: DUscf   =         1.378823
siesta: DUext   =         0.000000
siesta: Exc     =      -112.813917
siesta: eta*DQ  =         0.000000
siesta: Emadel  =         0.000000
siesta: Emeta   =         0.000000
siesta: Emolmec =         0.000000
siesta: Ekinion =         0.000000
siesta: Eharris =      -320.158785
siesta: Etot    =      -324.453130
siesta: FreeEng =      -324.453130

        iscf     Eharris(eV)        E_KS(eV)     FreeEng(eV)     dDmax    Ef(eV) dHmax(eV)
   scf:    1     -320.158785     -324.453130     -324.453130  1.769690 -7.326865  4.979418
timer: Routine,Calls,Time,% = IterSCF        1       1.967  55.75
   scf:    2     -324.675466     -324.567323     -324.567323  0.064539 -6.386017  3.259496
   scf:    3     -324.728622     -324.661212     -324.661212  0.114957 -4.657597  0.100900
   scf:    4     -324.661123     -324.661175     -324.661175  0.002342 -4.706004  0.026918
   scf:    5     -324.661244     -324.661210     -324.661210  0.001097 -4.712340  0.020200
   scf:    6     -324.661274     -324.661247     -324.661247  0.003048 -4.752154  0.002492
   scf:    7     -324.661247     -324.661247     -324.661247  0.000092 -4.752515  0.001240
   scf:    8     -324.661247     -324.661247     -324.661247  0.000106 -4.752785  0.000567
   scf:    9     -324.661247     -324.661247     -324.661247  0.000011 -4.752721  0.000500

SCF Convergence by DM+H criterion
max |DM_out - DM_in|         :     0.0000105401
max |H_out - H_in|      (eV) :     0.0005001443
SCF cycle converged after 9 iterations

Using DM_out to compute the final energy and forces
No. of atoms with KB's overlaping orbs in proc 0. Max # of overlaps:      30     268

siesta: E_KS(eV) =             -324.6612

siesta: E_KS - E_eggbox =      -324.6612

siesta: Atomic forces (eV/Ang):
----------------------------------------
   Tot    0.000000   -0.000000    0.000000
----------------------------------------
   Max    0.001221
   Res    0.000705    sqrt( Sum f_i^2 / 3N )
----------------------------------------
   Max    0.001221    constrained

Stress-tensor-Voigt (kbar):        0.03        0.02       -0.01       -0.00       -0.00        0.00
(Free)E + p*V (eV/cell)     -324.6621
Target enthalpy (eV/cell)     -324.6612

Broyden_optim: max_history for broyden:   5
Broyden_optim: cycle on maxit: T
Broyden_optim: initial inverse jacobian:   1.0000

Broyden_optim: No of elements:      6

outcoor: Relaxed atomic coordinates (fractional):           
    0.00000000    0.00000000    0.50000000   1       1  C
    0.33333333    0.33333333    0.50000000   1       2  C

coxmol: Writing XMOL coordinates into file Graphene.xyz                                                        
Computing bands...
*** Note: ParallelOverK option not used for Bands

siesta: Program's energy decomposition (eV):
siesta: Ebs     =      -110.548743
siesta: Eions   =       511.194752
siesta: Ena     =       113.354915
siesta: Ekin    =       214.512739
siesta: Enl     =       -21.280048
siesta: Eso     =         0.000000
siesta: Eldau   =         0.000000
siesta: DEna    =        -9.455798
siesta: DUscf   =         0.850726
siesta: DUext   =         0.000000
siesta: Exc     =      -111.449029
siesta: eta*DQ  =         0.000000
siesta: Emadel  =         0.000000
siesta: Emeta   =         0.000000
siesta: Emolmec =         0.000000
siesta: Ekinion =         0.000000
siesta: Eharris =      -324.661247
siesta: Etot    =      -324.661247
siesta: FreeEng =      -324.661247

siesta: Final energy (eV):
siesta:  Band Struct. =    -110.548743
siesta:       Kinetic =     214.512739
siesta:       Hartree =    1513.690820
siesta:       Eldau   =       0.000000
siesta:       Eso     =       0.000000
siesta:    Ext. field =       0.000000
siesta:   Exch.-corr. =    -111.449029
siesta:  Ion-electron =   -3227.206290
siesta:       Ion-ion =    1285.790513
siesta:       Ekinion =       0.000000
siesta:         Total =    -324.661247
siesta:         Fermi =      -4.752721

siesta: Stress tensor (static) (eV/Ang**3):
siesta:     0.000019   -0.000000    0.000000
siesta:    -0.000000    0.000013    0.000000
siesta:     0.000000   -0.000000   -0.000008

siesta: Cell volume =        107.134664 Ang**3

siesta: Pressure (static):
siesta:                Solid            Molecule  Units
siesta:          -0.00000009         -0.00000015  Ry/Bohr**3
siesta:          -0.00000798         -0.00001344  eV/Ang**3
siesta:          -0.01278956         -0.02153199  kBar
(Free)E+ p_basis*V_orbitals  =        -323.320702
(Free)Eharris+ p_basis*V_orbitals  =        -323.320702

siesta: Electric dipole (a.u.)  =   -0.000000   -0.000000    0.000000
siesta: Electric dipole (Debye) =   -0.000000   -0.000000    0.000000

timer: Elapsed wall time (sec) =      13.079
timer: CPU execution times (sec):

Routine            Calls   Time/call    Tot.time        %
siesta                 1      13.078      13.078   100.00
Setup                  1       0.149       0.149     1.14
bands                  3       0.061       0.182     1.39
KSV_init               1       0.000       0.000     0.00
IterGeom               1      12.727      12.727    97.31
state_init             1       0.138       0.138     1.05
hsparse                1       0.004       0.004     0.03
overlap                1       0.128       0.128     0.98
Setup_H0               1       1.274       1.274     9.74
naefs                  2       0.000       0.001     0.01
MolMec                 2       0.000       0.000     0.00
kinefsm                2       0.060       0.121     0.92
nlefsm                 2       0.245       0.490     3.75
DHSCF_Init             1       0.814       0.814     6.23
DHSCF1                 1       0.066       0.066     0.51
INITMESH               1       0.000       0.000     0.00
DHSCF2                 1       0.748       0.748     5.72
REMESH                 1       0.142       0.142     1.08
REORD                 37       0.000       0.009     0.07
PHION                  1       0.537       0.537     4.11
COMM_BSC              25       0.000       0.006     0.05
POISON                12       0.008       0.094     0.72
fft                   24       0.003       0.067     0.52
IterSCF                9       1.051       9.461    72.34
setup_H               10       0.585       5.850    44.73
DHSCF                 11       0.684       7.528    57.56
DHSCF3                11       0.573       6.307    48.22
rhoofd                11       0.279       3.074    23.50
CellXC                11       0.102       1.118     8.55
cellXC                11       0.102       1.118     8.55
vmat                  11       0.180       1.979    15.13
compute_dm             9       0.399       3.588    27.44
diagon                 9       0.397       3.572    27.31
c-eigval            1930       0.001       1.153     8.82
c-buildHS           1930       0.000       0.956     7.31
cdiag               3559       0.000       0.565     4.32
cdiag1              3559       0.000       0.054     0.42
cdiag2              3559       0.000       0.091     0.69
cdiag3              3559       0.000       0.388     2.97
cdiag4              3559       0.000       0.008     0.06
c-eigvec            1629       0.001       1.201     9.19
c-buildD            1629       0.001       1.366    10.45
MIXER                  8       0.001       0.005     0.04
PostSCF                1       1.846       1.846    14.12
DHSCF4                 1       1.221       1.221     9.33
dfscf                  1       1.159       1.159     8.86
overfsm                1       0.009       0.009     0.07
state_analysis         1       0.003       0.003     0.02
siesta_move            1       0.000       0.000     0.00
Analysis               1       0.196       0.196     1.50
optical                1       0.000       0.000     0.00
  
>> End of run:  10-JUL-2020  15:54:14
Job completed
