Siesta Version  : v4.1-b4
Architecture    : linux
Compiler version: GNU Fortran (Ubuntu 5.4.0-6ubuntu1~16.04.11) 5.4.0 20160609
Compiler flags  : mpif90 -g -fPIC -O3 -ftree-vectorize
PP flags        : -DFC_HAVE_ABORT -DSIESTA__DIAG_2STAGE -DSIESTA__MRRR -DMPI
Libraries       :  -Wl,-Bstatic -Wl,--start-group -lmkl_scalapack_lp64 -lmkl_blacs_intelmpi_lp664 -lmkl_intel_lp64 -lmkl_sequential -lmkl_core -Wl,--end-group -Wl,-Bdynamic
PARALLEL version

* Running on 6 nodes in parallel
>> Start of run:  28-AUG-2019  12:32:34

                           ***********************       
                           *  WELCOME TO SIESTA  *       
                           ***********************       

reinit: Reading from standard input
reinit: Dumped input in INPUT_TMP.97114
************************** Dump of input data file ****************************
# Siesta input file
         # -- SELF-CONSISTENT FIELD --
MeshCutoff                   300 Ry
PAO.EnergyShift              30 meV
XC.Functional                GGA
XC.Authors                   PBE
MaxSCFIterations             1000
         # -- MOLECULAR DYNAMICS --
MD.TypeOfRun                 Broyden
MD.NumCGsteps                1000
MD.MaxForceTol               0.01 eV/Ang
         # -- MATERIAL --
SystemLabel                  BenzeneStacking
WriteCoorStep                true
WriteCoorXmol                true
%block ChemicalSpeciesLabel
 1   6   C.gga
 2   1   H.gga
%endblock ChemicalSpeciesLabel
AtomicCoordinatesFormat      Ang
LatticeConstant              1.000 Ang
%block LatticeVectors
       20.0000000000         0.0000000000         0.0000000000
        0.0000000000        20.0000000000         0.0000000000
        0.0000000000         0.0000000000        20.0000000000
%endblock LatticeVectors
%block AtomicCoordinatesAndAtomicSpecies
    4.69292946    3.62739815    4.23874971   1       1  C.gga
    3.28324182    3.70269566    4.22788655   1       2  C.gga
    2.59019864    3.78325469    3.00067563   1       3  C.gga
    3.30669300    3.78823421    1.78428902   1       4  C.gga
    4.71632603    3.71280579    1.79514835   1       5  C.gga
    5.40937581    3.63237028    3.02238017   1       6  C.gga
    5.23703596    3.56349057    5.20169011   2       7  H.gga
    2.72078927    3.69814787    5.18240574   2       8  H.gga
    1.48385190    3.84177081    2.99222811   2       9  H.gga
    2.76269500    3.84989222    0.82112660   2      10  H.gga
    5.27851050    3.71479167    0.84047598   2      11  H.gga
    6.51557471    3.57168931    3.03089564   2      12  H.gga
%endblock AtomicCoordinatesAndAtomicSpecies
************************** End of input data file *****************************

reinit: -----------------------------------------------------------------------
reinit: System Name: 
reinit: -----------------------------------------------------------------------
reinit: System Label: BenzeneStacking
reinit: -----------------------------------------------------------------------

initatom: Reading input for the pseudopotentials and atomic orbitals ----------
Species number:   1 Atomic number:    6 Label: C.gga
Species number:   2 Atomic number:    1 Label: H.gga

Ground state valence configuration:   2s02  2p02
Reading pseudopotential information in formatted form from C.gga.psf

Valence configuration for pseudopotential generation:
2s( 2.00) rc: 1.54
2p( 2.00) rc: 1.54
3d( 0.00) rc: 1.54
4f( 0.00) rc: 1.54
Ground state valence configuration:   1s01
Reading pseudopotential information in formatted form from H.gga.psf

Valence configuration for pseudopotential generation:
1s( 1.00) rc: 1.31
2p( 0.00) rc: 1.31
3d( 0.00) rc: 0.37
4f( 0.00) rc: 1.31
For C.gga, standard SIESTA heuristics set lmxkb to 3
 (one more than the basis l, including polarization orbitals).
Use PS.lmax or PS.KBprojectors blocks to override.
For H.gga, standard SIESTA heuristics set lmxkb to 2
 (one more than the basis l, including polarization orbitals).
Use PS.lmax or PS.KBprojectors blocks to override.

<basis_specs>
===============================================================================
C.gga                Z=   6    Mass=  12.010        Charge= 0.17977+309
Lmxo=1 Lmxkb= 3    BasisType=split      Semic=F
L=0  Nsemic=0  Cnfigmx=2
          n=1  nzeta=2  polorb=0
            splnorm:   0.15000    
               vcte:    0.0000    
               rinn:    0.0000    
               qcoe:    0.0000    
               qyuk:    0.0000    
               qwid:   0.10000E-01
                rcs:    0.0000      0.0000    
            lambdas:    1.0000      1.0000    
L=1  Nsemic=0  Cnfigmx=2
          n=1  nzeta=2  polorb=1
            splnorm:   0.15000    
               vcte:    0.0000    
               rinn:    0.0000    
               qcoe:    0.0000    
               qyuk:    0.0000    
               qwid:   0.10000E-01
                rcs:    0.0000      0.0000    
            lambdas:    1.0000      1.0000    
-------------------------------------------------------------------------------
L=0  Nkbl=1  erefs: 0.17977+309
L=1  Nkbl=1  erefs: 0.17977+309
L=2  Nkbl=1  erefs: 0.17977+309
L=3  Nkbl=1  erefs: 0.17977+309
===============================================================================
</basis_specs>

atom: Called for C.gga                 (Z =   6)

read_vps: Pseudopotential generation method:
read_vps: ATM3      Troullier-Martins                       
Total valence charge:    4.00000

read_vps: Pseudopotential includes a core correction:
read_vps: Pseudo-core for xc-correction

xc_check: Exchange-correlation functional:
xc_check: GGA Perdew, Burke & Ernzerhof 1996
V l=0 = -2*Zval/r beyond r=  1.5227
V l=1 = -2*Zval/r beyond r=  1.5227
V l=2 = -2*Zval/r beyond r=  1.5227
V l=3 = -2*Zval/r beyond r=  1.5038
All V_l potentials equal beyond r=  1.5227
This should be close to max(r_c) in ps generation
All pots = -2*Zval/r beyond r=  1.5227

VLOCAL1: 99.0% of the norm of Vloc inside     18.722 Ry
VLOCAL1: 99.9% of the norm of Vloc inside     42.668 Ry
atom: Maximum radius for 4*pi*r*r*local-pseudopot. charge    1.83678
atom: Maximum radius for r*vlocal+2*Zval:    1.58088
GHOST: No ghost state for L =  0
GHOST: No ghost state for L =  1
GHOST: No ghost state for L =  2
GHOST: No ghost state for L =  3

KBgen: Kleinman-Bylander projectors: 
   l= 0   rc=  1.704034   el= -1.009801   Ekb=  5.335044   kbcos=  0.316824
   l= 1   rc=  1.704034   el= -0.388707   Ekb= -3.785862   kbcos= -0.366464
   l= 2   rc=  1.791422   el=  0.001971   Ekb= -0.970471   kbcos= -0.009212
   l= 3   rc=  1.859892   el=  0.003065   Ekb= -0.399525   kbcos= -0.001223

KBgen: Total number of  Kleinman-Bylander projectors:   16
atom: -------------------------------------------------------------------------

atom: SANKEY-TYPE ORBITALS:
atom: Selected multiple-zeta basis: split     

SPLIT: Orbitals with angular momentum L= 0

SPLIT: Basis orbitals for state 2s

SPLIT: PAO cut-off radius determined from an
SPLIT: energy shift=  0.002205 Ry

   izeta = 1
                 lambda =    1.000000
                     rc =    5.382558
                 energy =   -1.007983
                kinetic =    0.829025
    potential(screened) =   -1.837009
       potential(ionic) =   -5.376592

   izeta = 2
                 rmatch =    3.475094
              splitnorm =    0.150000
                 energy =   -0.876935
                kinetic =    1.279964
    potential(screened) =   -2.156899
       potential(ionic) =   -5.943761

SPLIT: Orbitals with angular momentum L= 1

SPLIT: Basis orbitals for state 2p

SPLIT: PAO cut-off radius determined from an
SPLIT: energy shift=  0.002205 Ry

   izeta = 1
                 lambda =    1.000000
                     rc =    6.740804
                 energy =   -0.386704
                kinetic =    2.327316
    potential(screened) =   -2.714020
       potential(ionic) =   -6.100339

   izeta = 2
                 rmatch =    3.792903
              splitnorm =    0.150000
                 energy =   -0.270625
                kinetic =    3.420974
    potential(screened) =   -3.691599
       potential(ionic) =   -7.453004

POLgen: Perturbative polarization orbital with L=  2

POLgen: Polarization orbital for state 2p

   izeta = 1
                     rc =    6.740804
                 energy =    0.975645
                kinetic =    2.058046
    potential(screened) =   -1.082401
       potential(ionic) =   -3.782952
atom: Total number of Sankey-type orbitals: 13

atm_pop: Valence configuration (for local Pseudopot. screening):
 2s( 2.00)                                                            
 2p( 2.00)                                                            
Vna: chval, zval:    4.00000   4.00000

Vna:  Cut-off radius for the neutral-atom potential:   6.740804
comcore: Pseudo-core radius Rcore=  1.791422

atom: _________________________________________________________________________

<basis_specs>
===============================================================================
H.gga                Z=   1    Mass=  1.0100        Charge= 0.17977+309
Lmxo=0 Lmxkb= 2    BasisType=split      Semic=F
L=0  Nsemic=0  Cnfigmx=1
          n=1  nzeta=2  polorb=1
            splnorm:   0.15000    
               vcte:    0.0000    
               rinn:    0.0000    
               qcoe:    0.0000    
               qyuk:    0.0000    
               qwid:   0.10000E-01
                rcs:    0.0000      0.0000    
            lambdas:    1.0000      1.0000    
-------------------------------------------------------------------------------
L=0  Nkbl=1  erefs: 0.17977+309
L=1  Nkbl=1  erefs: 0.17977+309
L=2  Nkbl=1  erefs: 0.17977+309
===============================================================================
</basis_specs>

atom: Called for H.gga                 (Z =   1)

read_vps: Pseudopotential generation method:
read_vps: ATM3      Troullier-Martins                       
Total valence charge:    1.00000

xc_check: Exchange-correlation functional:
xc_check: GGA Perdew, Burke & Ernzerhof 1996
V l=0 = -2*Zval/r beyond r=  1.2977
V l=1 = -2*Zval/r beyond r=  1.2815
V l=2 = -2*Zval/r beyond r=  1.2656
All V_l potentials equal beyond r=  1.2977
This should be close to max(r_c) in ps generation
All pots = -2*Zval/r beyond r=  1.2977

VLOCAL1: 99.0% of the norm of Vloc inside     25.776 Ry
VLOCAL1: 99.9% of the norm of Vloc inside     58.745 Ry
atom: Maximum radius for 4*pi*r*r*local-pseudopot. charge    1.52711
atom: Maximum radius for r*vlocal+2*Zval:    1.28155
GHOST: No ghost state for L =  0
GHOST: No ghost state for L =  1
GHOST: No ghost state for L =  2

KBgen: Kleinman-Bylander projectors: 
   l= 0   rc=  1.434438   el= -0.477200   Ekb= -1.957043   kbcos= -0.361614
   l= 1   rc=  1.508111   el=  0.001076   Ekb= -0.424224   kbcos= -0.025441
   l= 2   rc=  1.527112   el=  0.002010   Ekb= -0.378578   kbcos= -0.002010

KBgen: Total number of  Kleinman-Bylander projectors:    9
atom: -------------------------------------------------------------------------

atom: SANKEY-TYPE ORBITALS:
atom: Selected multiple-zeta basis: split     

SPLIT: Orbitals with angular momentum L= 0

SPLIT: Basis orbitals for state 1s

SPLIT: PAO cut-off radius determined from an
SPLIT: energy shift=  0.002205 Ry

   izeta = 1
                 lambda =    1.000000
                     rc =    6.518340
                 energy =   -0.475328
                kinetic =    0.879188
    potential(screened) =   -1.354517
       potential(ionic) =   -1.873657

   izeta = 2
                 rmatch =    4.103729
              splitnorm =    0.150000
                 energy =   -0.382914
                kinetic =    1.427335
    potential(screened) =   -1.810249
       potential(ionic) =   -2.357086

POLgen: Perturbative polarization orbital with L=  1

POLgen: Polarization orbital for state 1s

   izeta = 1
                     rc =    6.518340
                 energy =    0.536347
                kinetic =    1.136516
    potential(screened) =   -0.600169
       potential(ionic) =   -1.065665
atom: Total number of Sankey-type orbitals:  5

atm_pop: Valence configuration (for local Pseudopot. screening):
 1s( 1.00)                                                            
Vna: chval, zval:    1.00000   1.00000

Vna:  Cut-off radius for the neutral-atom potential:   6.518340

atom: _________________________________________________________________________

prinput: Basis input ----------------------------------------------------------

PAO.BasisType split     

%block ChemicalSpeciesLabel
    1    6 C.gga                   # Species index, atomic number, species label
    2    1 H.gga                   # Species index, atomic number, species label
%endblock ChemicalSpeciesLabel

%block PAO.Basis                 # Define Basis set
C.gga                 2                    # Species label, number of l-shells
 n=2   0   2                         # n, l, Nzeta 
   5.383      3.475   
   1.000      1.000   
 n=2   1   2 P   1                   # n, l, Nzeta, Polarization, NzetaPol
   6.741      3.793   
   1.000      1.000   
H.gga                 1                    # Species label, number of l-shells
 n=1   0   2 P   1                   # n, l, Nzeta, Polarization, NzetaPol
   6.518      4.104   
   1.000      1.000   
%endblock PAO.Basis

prinput: ----------------------------------------------------------------------

coor:   Atomic-coordinates input format  =     Cartesian coordinates
coor:                                          (in Angstroms)

siesta: Atomic coordinates (Bohr) and species
siesta:      8.86835   6.85479   8.01008  1        1
siesta:      6.20443   6.99708   7.98955  1        2
siesta:      4.89477   7.14932   5.67046  1        3
siesta:      6.24875   7.15873   3.37182  1        4
siesta:      8.91257   7.01619   3.39234  1        5
siesta:     10.22224   6.86419   5.71147  1        6
siesta:      9.89657   6.73402   9.82977  2        7
siesta:      5.14155   6.98849   9.79333  2        8
siesta:      2.80407   7.25990   5.65449  2        9
siesta:      5.22074   7.27524   1.55171  2       10
siesta:      9.97494   7.01994   1.58827  2       11
siesta:     12.31266   6.74952   5.72756  2       12

siesta: System type = molecule  

initatomlists: Number of atoms, orbitals, and projectors:     12   108   150

coxmol: Writing XMOL coordinates into file BenzeneStacking.xyz                                                 

siesta: ******************** Simulation parameters ****************************
siesta:
siesta: The following are some of the parameters of the simulation.
siesta: A complete list of the parameters used, including default values,
siesta: can be found in file out.fdf
siesta:
redata: Spin configuration                          = none
redata: Number of spin components                   = 1
redata: Time-Reversal Symmetry                      = T
redata: Spin-spiral                                 = F
redata: Long output                                 =   F
redata: Number of Atomic Species                    =        2
redata: Charge density info will appear in .RHO file
redata: Write Mulliken Pop.                         = NO
redata: Matel table size (NRTAB)                    =     1024
redata: Mesh Cutoff                                 =   300.0000 Ry
redata: Net charge of the system                    =     0.0000 |e|
redata: Min. number of SCF Iter                     =        0
redata: Max. number of SCF Iter                     =     1000
redata: SCF convergence failure will abort job
redata: SCF mix quantity                            = Hamiltonian
redata: Mix DM or H after convergence               =   F
redata: Recompute H after scf cycle                 =   F
redata: Mix DM in first SCF step                    =   T
redata: Write Pulay info on disk                    =   F
redata: New DM Mixing Weight                        =     0.2500
redata: New DM Occupancy tolerance                  = 0.000000000001
redata: No kicks to SCF
redata: DM Mixing Weight for Kicks                  =     0.5000
redata: Require Harris convergence for SCF          =   F
redata: Harris energy tolerance for SCF             =     0.000100 eV
redata: Require DM convergence for SCF              =   T
redata: DM tolerance for SCF                        =     0.000100
redata: Require EDM convergence for SCF             =   F
redata: EDM tolerance for SCF                       =     0.001000 eV
redata: Require H convergence for SCF               =   T
redata: Hamiltonian tolerance for SCF               =     0.001000 eV
redata: Require (free) Energy convergence for SCF   =   F
redata: (free) Energy tolerance for SCF             =     0.000100 eV
redata: Using Saved Data (generic)                  =   F
redata: Use continuation files for DM               =   F
redata: Neglect nonoverlap interactions             =   F
redata: Method of Calculation                       = Diagonalization
redata: Electronic Temperature                      =   299.9869 K
redata: Fix the spin of the system                  =   F
redata: Dynamics option                             = Broyden coord. optimization
redata: Variable cell                               =   F
redata: Maximum number of CG moves                  =     1000
redata: Force tolerance                             =     0.0100 eV/Ang
mix.SCF: Pulay mixing                            = Pulay
mix.SCF:    Variant                              = stable
mix.SCF:    History steps                        = 2
mix.SCF:    Linear mixing weight                 =     0.250000
mix.SCF:    Mixing weight                        =     0.250000
mix.SCF:    SVD condition                        = 0.1000E-07
redata: ***********************************************************************

%block SCF.Mixers
  Pulay
%endblock SCF.Mixers

%block SCF.Mixer.Pulay
  # Mixing method
  method pulay
  variant stable

  # Mixing options
  weight 0.2500
  weight.linear 0.2500
  history 2
%endblock SCF.Mixer.Pulay

DM_history_depth set to one: no extrapolation allowed by default for geometry relaxation
Size of DM history Fstack: 1
Total number of electrons:    30.000000
Total ionic charge:    30.000000

* ProcessorY, Blocksize:    2  19


* Orbital distribution balance (max,min):    19    13

 Kpoints in:            1 . Kpoints trimmed:            1

siesta: k-grid: Number of k-points =     1
siesta: k-grid: Cutoff (effective) =    10.000 Ang
siesta: k-grid: Supercell and displacements
siesta: k-grid:    1   0   0      0.000
siesta: k-grid:    0   1   0      0.000
siesta: k-grid:    0   0   1      0.000

diag: Algorithm                                     = D&C
diag: Parallel over k                               =   F
diag: Use parallel 2D distribution                  =   T
diag: Parallel block-size                           = 19
diag: Parallel distribution                         =     2 x     3
diag: Used triangular part                          = Lower
diag: Absolute tolerance                            =  0.100E-15
diag: Orthogonalization factor                      =  0.100E-05
diag: Memory factor                                 =  1.0000


ts: **************************************************************
ts: Save H and S matrices                           =    F
ts: Save DM and EDM matrices                        =    F
ts: Fix Hartree potential                           =    F
ts: Only save the overlap matrix S                  =    F
ts: **************************************************************

************************ Begin: TS CHECKS AND WARNINGS ************************
************************ End: TS CHECKS AND WARNINGS **************************


                     ====================================
                        Begin Broyden opt. move =      0
                     ====================================

outcoor: Atomic coordinates (Ang):                          
    4.69292946    3.62739815    4.23874971   1       1  C.gga
    3.28324182    3.70269566    4.22788655   1       2  C.gga
    2.59019864    3.78325469    3.00067563   1       3  C.gga
    3.30669300    3.78823421    1.78428902   1       4  C.gga
    4.71632603    3.71280579    1.79514835   1       5  C.gga
    5.40937581    3.63237028    3.02238017   1       6  C.gga
    5.23703596    3.56349057    5.20169011   2       7  H.gga
    2.72078927    3.69814787    5.18240574   2       8  H.gga
    1.48385190    3.84177081    2.99222811   2       9  H.gga
    2.76269500    3.84989222    0.82112660   2      10  H.gga
    5.27851050    3.71479167    0.84047598   2      11  H.gga
    6.51557471    3.57168931    3.03089564   2      12  H.gga

outcell: Unit cell vectors (Ang):
       20.000000    0.000000    0.000000
        0.000000   20.000000    0.000000
        0.000000    0.000000   20.000000

outcell: Cell vector modules (Ang)   :   20.000000   20.000000   20.000000
outcell: Cell angles (23,13,12) (deg):     90.0000     90.0000     90.0000
outcell: Cell volume (Ang**3)        :   8000.0000
<dSpData1D:S at geom step 0
  <sparsity:sparsity for geom step 0
    nrows_g=108 nrows=19 sparsity=.1759 nnzs=2052, refcount: 7>
  <dData1D:(new from dSpData1D) n=2052, refcount: 1>
refcount: 1>
new_DM -- step:     1
Initializing Density Matrix...
DM filled with atomic data:
<dSpData2D:DM initialized from atoms
  <sparsity:sparsity for geom step 0
    nrows_g=108 nrows=19 sparsity=.1759 nnzs=2052, refcount: 8>
  <dData2D:DM n=2052 m=1, refcount: 1>
refcount: 1>
No. of atoms with KB's overlaping orbs in proc 0. Max # of overlaps:      12     104
New grid distribution:   1
           1       1:  108    1:   54    1:   36
           2       1:  108    1:   54   37:   72
           3       1:  108    1:   54   73:  108
           4       1:  108   55:  108    1:   36
           5       1:  108   55:  108   37:   72
           6       1:  108   55:  108   73:  108

InitMesh: MESH =   216 x   216 x   216 =    10077696
InitMesh: (bp) =   108 x   108 x   108 =     1259712
InitMesh: Mesh cutoff (required, used) =   300.000   322.366 Ry
ExtMesh (bp) on 0 =   188 x   134 x   116 =     2922272
New grid distribution:   2
           1       1:  108    1:   17    1:   17
           2       1:   22   18:  108   18:  108
           3       1:  108    1:   17   18:  108
           4       1:   22   18:  108    1:   17
           5      23:  108   18:  108   18:  108
           6      23:  108   18:  108    1:   17
New grid distribution:   3
           1       1:   28   16:  108    1:   24
           2       1:   24   17:  108   25:  108
           3       1:  108    1:   15    1:   24
           4      29:  108   16:  108    1:   24
           5      25:  108   17:  108   25:  108
           6       1:  108    1:   16   25:  108
Setting up quadratic distribution...
ExtMesh (bp) on 0 =   188 x    97 x    97 =     1768892
PhiOnMesh: Number of (b)points on node 0 =                31212
PhiOnMesh: nlist on node 0 =               412651

stepf: Fermi-Dirac step function

siesta: Program's energy decomposition (eV):
siesta: Ebs     =      -262.735850
siesta: Eions   =      1646.050346
siesta: Ena     =       375.672125
siesta: Ekin    =       772.583124
siesta: Enl     =      -102.087922
siesta: Eso     =         0.000000
siesta: Eldau   =         0.000000
siesta: DEna    =       -76.970644
siesta: DUscf   =        11.829098
siesta: DUext   =         0.000000
siesta: Enegf   =         0.000000
siesta: Exc     =      -400.206999
siesta: eta*DQ  =         0.000000
siesta: Emadel  =         0.000000
siesta: Emeta   =         0.000000
siesta: Emolmec =         0.000000
siesta: Ekinion =         0.000000
siesta: Eharris =     -1062.917892
siesta: Etot    =     -1065.231564
siesta: FreeEng =     -1065.231564

        iscf     Eharris(eV)        E_KS(eV)     FreeEng(eV)     dDmax    Ef(eV) dHmax(eV)
   scf:    1    -1062.917892    -1065.231564    -1065.231564  1.981062 -9.305840  8.986150
timer: Routine,Calls,Time,% = IterSCF        1       3.193  52.77
   scf:    2    -1070.038168    -1067.902127    -1067.902127  0.112781 -7.174541  4.656253
   scf:    3    -1069.023404    -1068.734739    -1068.734739  0.121035 -5.005880  0.759003
   scf:    4    -1068.810861    -1068.776376    -1068.776376  0.008423 -5.010788  0.518040
   scf:    5    -1068.801743    -1068.790530    -1068.790530  0.007871 -4.961881  0.281131
   scf:    6    -1068.796115    -1068.793608    -1068.793608  0.006685 -4.883199  0.110208
   scf:    7    -1068.794201    -1068.793967    -1068.793967  0.004517 -4.810973  0.025950
   scf:    8    -1068.794186    -1068.794088    -1068.794088  0.000328 -4.806290  0.018142
   scf:    9    -1068.794154    -1068.794126    -1068.794126  0.000381 -4.805419  0.009651
   scf:   10    -1068.794136    -1068.794131    -1068.794131  0.000238 -4.806679  0.005064
   scf:   11    -1068.794133    -1068.794132    -1068.794132  0.000267 -4.808646  0.000973
   scf:   12    -1068.794133    -1068.794132    -1068.794132  0.000020 -4.808998  0.000453

SCF Convergence by DM+H criterion
max |DM_out - DM_in|         :     0.0000199142
max |H_out - H_in|      (eV) :     0.0004526981
SCF cycle converged after 12 iterations

Using DM_out to compute the final energy and forces
No. of atoms with KB's overlaping orbs in proc 0. Max # of overlaps:      12     104

siesta: E_KS(eV) =            -1068.7941

siesta: E_KS - E_eggbox =     -1068.7941

siesta: Atomic forces (eV/Ang):
----------------------------------------
   Tot   -0.003917    0.000052   -0.000719
----------------------------------------
   Max    0.009366
   Res    0.003504    sqrt( Sum f_i^2 / 3N )
----------------------------------------
   Max    0.009366    constrained

Stress-tensor-Voigt (kbar):       -0.00       -0.00       -0.00        0.00        0.00       -0.00
(Free)E + p*V (eV/cell)    -1068.7912
Target enthalpy (eV/cell)    -1068.7941

Broyden_optim: max_history for broyden:   5
Broyden_optim: cycle on maxit: T
Broyden_optim: initial inverse jacobian:   1.0000

Broyden_optim: No of elements:     36

outcoor: Relaxed atomic coordinates (Ang):                  
    4.69292946    3.62739815    4.23874971   1       1  C.gga
    3.28324182    3.70269566    4.22788655   1       2  C.gga
    2.59019864    3.78325469    3.00067563   1       3  C.gga
    3.30669300    3.78823421    1.78428902   1       4  C.gga
    4.71632603    3.71280579    1.79514835   1       5  C.gga
    5.40937581    3.63237028    3.02238017   1       6  C.gga
    5.23703596    3.56349057    5.20169011   2       7  H.gga
    2.72078927    3.69814787    5.18240574   2       8  H.gga
    1.48385190    3.84177081    2.99222811   2       9  H.gga
    2.76269500    3.84989222    0.82112660   2      10  H.gga
    5.27851050    3.71479167    0.84047598   2      11  H.gga
    6.51557471    3.57168931    3.03089564   2      12  H.gga

coxmol: Writing XMOL coordinates into file BenzeneStacking.xyz                                                 

siesta: Program's energy decomposition (eV):
siesta: Ebs     =      -362.563710
siesta: Eions   =      1646.050346
siesta: Ena     =       375.672125
siesta: Ekin    =       722.108955
siesta: Enl     =       -94.224295
siesta: Eso     =         0.000000
siesta: Eldau   =         0.000000
siesta: DEna    =       -42.833823
siesta: DUscf   =         5.050351
siesta: DUext   =         0.000000
siesta: Enegf   =         0.000000
siesta: Exc     =      -388.517100
siesta: eta*DQ  =         0.000000
siesta: Emadel  =         0.000000
siesta: Emeta   =         0.000000
siesta: Emolmec =         0.000000
siesta: Ekinion =         0.000000
siesta: Eharris =     -1068.794133
siesta: Etot    =     -1068.794132
siesta: FreeEng =     -1068.794132

siesta: Final energy (eV):
siesta:  Band Struct. =    -362.563710
siesta:       Kinetic =     722.108955
siesta:       Hartree =    2625.000279
siesta:       Eldau   =       0.000000
siesta:       Eso     =       0.000000
siesta:    Ext. field =       0.000000
siesta:       Enegf   =       0.000000
siesta:   Exch.-corr. =    -388.517100
siesta:  Ion-electron =   -5889.498170
siesta:       Ion-ion =    1862.111904
siesta:       Ekinion =       0.000000
siesta:         Total =   -1068.794132
siesta:         Fermi =      -4.808998

siesta: Stress tensor (static) (eV/Ang**3):
siesta:    -0.000001    0.000000   -0.000000
siesta:     0.000000   -0.000000    0.000000
siesta:    -0.000000    0.000000   -0.000000

siesta: Cell volume =       8000.000000 Ang**3

siesta: Pressure (static):
siesta:                Solid            Molecule  Units
siesta:           0.00000000         -0.00000001  Ry/Bohr**3
siesta:           0.00000036         -0.00000075  eV/Ang**3
siesta:           0.00057763         -0.00120322  kBar
(Free)E+ p_basis*V_orbitals  =       -1061.876082
(Free)Eharris+ p_basis*V_orbitals  =       -1061.876082

siesta: Electric dipole (a.u.)  =   -0.000066   -0.001419   -0.000057
siesta: Electric dipole (Debye) =   -0.000168   -0.003607   -0.000144
>> End of run:  28-AUG-2019  12:32:59
Job completed
