
                           ***********************       
                           *  WELCOME TO SIESTA  *       
                           ***********************       

reinit: Reading from input.fdf

reinit: -----------------------------------------------------------------------
reinit: System Name: 
reinit: -----------------------------------------------------------------------
reinit: System Label: LiCoronene
reinit: -----------------------------------------------------------------------
Siesta Version: siesta-4.1--736
Architecture  : unknown
Compiler flags: gfortran -O3 -fPIC -ftree-vectorize -fopenmp
PP flags      : -DFC_HAVE_ABORT
Libraries     : -L/usr/local/opt/openblas/lib -lopenblas -fopenmp
SERIAL version

* Running in serial mode
* Running 4 OpenMP threads.
* Running 4 processes.
* OpenMP version 201511
* OpenMP runtime schedule DYNAMIC, chunks 1
** OpenMP runtime schedule DYNAMIC, chunks 32
>> Start of run:  22-AUG-2019  23:56:01

initatom: Reading input for the pseudopotentials and atomic orbitals ----------
Species number:   1 Atomic number:    3 Label: Li.gga
Species number:   2 Atomic number:    6 Label: C.gga
Species number:   3 Atomic number:    1 Label: H.gga

Ground state valence configuration:   2s01
Reading pseudopotential information in formatted form from Li.gga.psf

Valence configuration for pseudopotential generation:
2s( 1.00) rc: 2.26
2p( 0.00) rc: 2.26
3d( 0.00) rc: 2.59
4f( 0.00) rc: 2.59
Ground state valence configuration:   2s02  2p02
Reading pseudopotential information in formatted form from C.gga.psf

Valence configuration for pseudopotential generation:
2s( 2.00) rc: 1.54
2p( 2.00) rc: 1.54
3d( 0.00) rc: 1.54
4f( 0.00) rc: 1.54
Ground state valence configuration:   1s01
Reading pseudopotential information in formatted form from H.gga.psf

Valence configuration for pseudopotential generation:
1s( 1.00) rc: 1.31
2p( 0.00) rc: 1.31
3d( 0.00) rc: 0.37
4f( 0.00) rc: 1.31
For Li.gga, standard SIESTA heuristics set lmxkb to 2
 (one more than the basis l, including polarization orbitals).
Use PS.lmax or PS.KBprojectors blocks to override.
For C.gga, standard SIESTA heuristics set lmxkb to 3
 (one more than the basis l, including polarization orbitals).
Use PS.lmax or PS.KBprojectors blocks to override.
For H.gga, standard SIESTA heuristics set lmxkb to 2
 (one more than the basis l, including polarization orbitals).
Use PS.lmax or PS.KBprojectors blocks to override.

<basis_specs>
===============================================================================
Li.gga               Z=   3    Mass=  6.9400        Charge= 0.17977+309
Lmxo=0 Lmxkb= 2    BasisType=split      Semic=F
L=0  Nsemic=0  Cnfigmx=2
          n=1  nzeta=2  polorb=1
            splnorm:   0.15000    
               vcte:    0.0000    
               rinn:    0.0000    
               qcoe:    0.0000    
               qyuk:    0.0000    
               qwid:   0.10000E-01
                rcs:    0.0000      0.0000    
            lambdas:    1.0000      1.0000    
-------------------------------------------------------------------------------
L=0  Nkbl=1  erefs: 0.17977+309
L=1  Nkbl=1  erefs: 0.17977+309
L=2  Nkbl=1  erefs: 0.17977+309
===============================================================================
</basis_specs>

atom: Called for Li.gga                (Z =   3)

read_vps: Pseudopotential generation method:
read_vps: ATM3      Troullier-Martins                       
Total valence charge:    1.00000

read_vps: Pseudopotential includes a core correction:
read_vps: Pseudo-core for xc-correction

xc_check: Exchange-correlation functional:
xc_check: GGA Perdew, Burke & Ernzerhof 1996
V l=0 = -2*Zval/r beyond r=  2.4014
V l=1 = -2*Zval/r beyond r=  2.4014
V l=2 = -2*Zval/r beyond r=  2.5245
All V_l potentials equal beyond r=  2.5245
This should be close to max(r_c) in ps generation
All pots = -2*Zval/r beyond r=  2.5245

VLOCAL1: 99.0% of the norm of Vloc inside      6.811 Ry
VLOCAL1: 99.9% of the norm of Vloc inside     15.522 Ry
atom: Maximum radius for 4*pi*r*r*local-pseudopot. charge    2.93324
atom: Maximum radius for r*vlocal+2*Zval:    2.49317
GHOST: No ghost state for L =  0
GHOST: No ghost state for L =  1
GHOST: No ghost state for L =  2

KBgen: Kleinman-Bylander projectors: 
   l= 0   rc=  2.790140   el= -0.211227   Ekb=  1.846275   kbcos=  0.224637
   l= 1   rc=  2.860793   el= -0.080117   Ekb= -0.939901   kbcos= -0.153637
   l= 2   rc=  3.282601   el=  0.002001   Ekb= -0.184857   kbcos= -0.032514

KBgen: Total number of  Kleinman-Bylander projectors:    9
atom: -------------------------------------------------------------------------

atom: SANKEY-TYPE ORBITALS:
atom: Selected multiple-zeta basis: split     

SPLIT: Orbitals with angular momentum L= 0

SPLIT: Basis orbitals for state 2s

SPLIT: PAO cut-off radius determined from an
SPLIT: energy shift=  0.002205 Ry

   izeta = 1
                 lambda =    1.000000
                     rc =   10.499305
                 energy =   -0.209078
                kinetic =    0.149539
    potential(screened) =   -0.358617
       potential(ionic) =   -0.535122

   izeta = 2
                 rmatch =    8.383698
              splitnorm =    0.150000
                 energy =   -0.187449
                kinetic =    0.223123
    potential(screened) =   -0.410572
       potential(ionic) =   -0.587981

POLgen: Perturbative polarization orbital with L=  1

POLgen: Polarization orbital for state 2s

   izeta = 1
                     rc =   10.499305
                 energy =   -0.019499
                kinetic =    0.299862
    potential(screened) =   -0.319361
       potential(ionic) =   -0.500224
atom: Total number of Sankey-type orbitals:  5

atm_pop: Valence configuration (for local Pseudopot. screening):
 2s( 1.00)                                                            
Vna: chval, zval:    1.00000   1.00000

Vna:  Cut-off radius for the neutral-atom potential:  10.499305
comcore: Pseudo-core radius Rcore=  3.450946

atom: _________________________________________________________________________

<basis_specs>
===============================================================================
C.gga                Z=   6    Mass=  12.010        Charge= 0.17977+309
Lmxo=1 Lmxkb= 3    BasisType=split      Semic=F
L=0  Nsemic=0  Cnfigmx=2
          n=1  nzeta=2  polorb=0
            splnorm:   0.15000    
               vcte:    0.0000    
               rinn:    0.0000    
               qcoe:    0.0000    
               qyuk:    0.0000    
               qwid:   0.10000E-01
                rcs:    0.0000      0.0000    
            lambdas:    1.0000      1.0000    
L=1  Nsemic=0  Cnfigmx=2
          n=1  nzeta=2  polorb=1
            splnorm:   0.15000    
               vcte:    0.0000    
               rinn:    0.0000    
               qcoe:    0.0000    
               qyuk:    0.0000    
               qwid:   0.10000E-01
                rcs:    0.0000      0.0000    
            lambdas:    1.0000      1.0000    
-------------------------------------------------------------------------------
L=0  Nkbl=1  erefs: 0.17977+309
L=1  Nkbl=1  erefs: 0.17977+309
L=2  Nkbl=1  erefs: 0.17977+309
L=3  Nkbl=1  erefs: 0.17977+309
===============================================================================
</basis_specs>

atom: Called for C.gga                 (Z =   6)

read_vps: Pseudopotential generation method:
read_vps: ATM3      Troullier-Martins                       
Total valence charge:    4.00000

read_vps: Pseudopotential includes a core correction:
read_vps: Pseudo-core for xc-correction

xc_check: Exchange-correlation functional:
xc_check: GGA Perdew, Burke & Ernzerhof 1996
V l=0 = -2*Zval/r beyond r=  1.5227
V l=1 = -2*Zval/r beyond r=  1.5227
V l=2 = -2*Zval/r beyond r=  1.5227
V l=3 = -2*Zval/r beyond r=  1.5038
All V_l potentials equal beyond r=  1.5227
This should be close to max(r_c) in ps generation
All pots = -2*Zval/r beyond r=  1.5227

VLOCAL1: 99.0% of the norm of Vloc inside     18.722 Ry
VLOCAL1: 99.9% of the norm of Vloc inside     42.668 Ry
atom: Maximum radius for 4*pi*r*r*local-pseudopot. charge    1.83678
atom: Maximum radius for r*vlocal+2*Zval:    1.58088
GHOST: No ghost state for L =  0
GHOST: No ghost state for L =  1
GHOST: No ghost state for L =  2
GHOST: No ghost state for L =  3

KBgen: Kleinman-Bylander projectors: 
   l= 0   rc=  1.704034   el= -1.009801   Ekb=  5.335044   kbcos=  0.316824
   l= 1   rc=  1.704034   el= -0.388707   Ekb= -3.785862   kbcos= -0.366464
   l= 2   rc=  1.791422   el=  0.001971   Ekb= -0.970471   kbcos= -0.009212
   l= 3   rc=  1.859892   el=  0.003065   Ekb= -0.399525   kbcos= -0.001223

KBgen: Total number of  Kleinman-Bylander projectors:   16
atom: -------------------------------------------------------------------------

atom: SANKEY-TYPE ORBITALS:
atom: Selected multiple-zeta basis: split     

SPLIT: Orbitals with angular momentum L= 0

SPLIT: Basis orbitals for state 2s

SPLIT: PAO cut-off radius determined from an
SPLIT: energy shift=  0.002205 Ry

   izeta = 1
                 lambda =    1.000000
                     rc =    5.382558
                 energy =   -1.007983
                kinetic =    0.829025
    potential(screened) =   -1.837009
       potential(ionic) =   -5.376592

   izeta = 2
                 rmatch =    3.475094
              splitnorm =    0.150000
                 energy =   -0.876935
                kinetic =    1.279964
    potential(screened) =   -2.156899
       potential(ionic) =   -5.943761

SPLIT: Orbitals with angular momentum L= 1

SPLIT: Basis orbitals for state 2p

SPLIT: PAO cut-off radius determined from an
SPLIT: energy shift=  0.002205 Ry

   izeta = 1
                 lambda =    1.000000
                     rc =    6.740804
                 energy =   -0.386704
                kinetic =    2.327316
    potential(screened) =   -2.714020
       potential(ionic) =   -6.100339

   izeta = 2
                 rmatch =    3.792903
              splitnorm =    0.150000
                 energy =   -0.270625
                kinetic =    3.420974
    potential(screened) =   -3.691599
       potential(ionic) =   -7.453004

POLgen: Perturbative polarization orbital with L=  2

POLgen: Polarization orbital for state 2p

   izeta = 1
                     rc =    6.740804
                 energy =    0.975645
                kinetic =    2.058046
    potential(screened) =   -1.082401
       potential(ionic) =   -3.782952
atom: Total number of Sankey-type orbitals: 13

atm_pop: Valence configuration (for local Pseudopot. screening):
 2s( 2.00)                                                            
 2p( 2.00)                                                            
Vna: chval, zval:    4.00000   4.00000

Vna:  Cut-off radius for the neutral-atom potential:   6.740804
comcore: Pseudo-core radius Rcore=  1.791422

atom: _________________________________________________________________________

<basis_specs>
===============================================================================
H.gga                Z=   1    Mass=  1.0100        Charge= 0.17977+309
Lmxo=0 Lmxkb= 2    BasisType=split      Semic=F
L=0  Nsemic=0  Cnfigmx=1
          n=1  nzeta=2  polorb=1
            splnorm:   0.15000    
               vcte:    0.0000    
               rinn:    0.0000    
               qcoe:    0.0000    
               qyuk:    0.0000    
               qwid:   0.10000E-01
                rcs:    0.0000      0.0000    
            lambdas:    1.0000      1.0000    
-------------------------------------------------------------------------------
L=0  Nkbl=1  erefs: 0.17977+309
L=1  Nkbl=1  erefs: 0.17977+309
L=2  Nkbl=1  erefs: 0.17977+309
===============================================================================
</basis_specs>

atom: Called for H.gga                 (Z =   1)

read_vps: Pseudopotential generation method:
read_vps: ATM3      Troullier-Martins                       
Total valence charge:    1.00000

xc_check: Exchange-correlation functional:
xc_check: GGA Perdew, Burke & Ernzerhof 1996
V l=0 = -2*Zval/r beyond r=  1.2977
V l=1 = -2*Zval/r beyond r=  1.2815
V l=2 = -2*Zval/r beyond r=  1.2656
All V_l potentials equal beyond r=  1.2977
This should be close to max(r_c) in ps generation
All pots = -2*Zval/r beyond r=  1.2977

VLOCAL1: 99.0% of the norm of Vloc inside     25.776 Ry
VLOCAL1: 99.9% of the norm of Vloc inside     58.745 Ry
atom: Maximum radius for 4*pi*r*r*local-pseudopot. charge    1.52711
atom: Maximum radius for r*vlocal+2*Zval:    1.28155
GHOST: No ghost state for L =  0
GHOST: No ghost state for L =  1
GHOST: No ghost state for L =  2

KBgen: Kleinman-Bylander projectors: 
   l= 0   rc=  1.434438   el= -0.477200   Ekb= -1.957043   kbcos= -0.361614
   l= 1   rc=  1.508111   el=  0.001076   Ekb= -0.424224   kbcos= -0.025441
   l= 2   rc=  1.527112   el=  0.002010   Ekb= -0.378578   kbcos= -0.002010

KBgen: Total number of  Kleinman-Bylander projectors:    9
atom: -------------------------------------------------------------------------

atom: SANKEY-TYPE ORBITALS:
atom: Selected multiple-zeta basis: split     

SPLIT: Orbitals with angular momentum L= 0

SPLIT: Basis orbitals for state 1s

SPLIT: PAO cut-off radius determined from an
SPLIT: energy shift=  0.002205 Ry

   izeta = 1
                 lambda =    1.000000
                     rc =    6.518340
                 energy =   -0.475328
                kinetic =    0.879188
    potential(screened) =   -1.354517
       potential(ionic) =   -1.873657

   izeta = 2
                 rmatch =    4.103729
              splitnorm =    0.150000
                 energy =   -0.382914
                kinetic =    1.427335
    potential(screened) =   -1.810249
       potential(ionic) =   -2.357086

POLgen: Perturbative polarization orbital with L=  1

POLgen: Polarization orbital for state 1s

   izeta = 1
                     rc =    6.518340
                 energy =    0.536347
                kinetic =    1.136516
    potential(screened) =   -0.600169
       potential(ionic) =   -1.065665
atom: Total number of Sankey-type orbitals:  5

atm_pop: Valence configuration (for local Pseudopot. screening):
 1s( 1.00)                                                            
Vna: chval, zval:    1.00000   1.00000

Vna:  Cut-off radius for the neutral-atom potential:   6.518340

atom: _________________________________________________________________________

prinput: Basis input ----------------------------------------------------------

PAO.BasisType split     

%block ChemicalSpeciesLabel
    1    3 Li.gga                  # Species index, atomic number, species label
    2    6 C.gga                   # Species index, atomic number, species label
    3    1 H.gga                   # Species index, atomic number, species label
%endblock ChemicalSpeciesLabel

%block PAO.Basis                 # Define Basis set
Li.gga                1                    # Species label, number of l-shells
 n=2   0   2 P   1                   # n, l, Nzeta, Polarization, NzetaPol
  10.499      8.384   
   1.000      1.000   
C.gga                 2                    # Species label, number of l-shells
 n=2   0   2                         # n, l, Nzeta 
   5.383      3.475   
   1.000      1.000   
 n=2   1   2 P   1                   # n, l, Nzeta, Polarization, NzetaPol
   6.741      3.793   
   1.000      1.000   
H.gga                 1                    # Species label, number of l-shells
 n=1   0   2 P   1                   # n, l, Nzeta, Polarization, NzetaPol
   6.518      4.104   
   1.000      1.000   
%endblock PAO.Basis

prinput: ----------------------------------------------------------------------

coor:   Atomic-coordinates input format  =     Cartesian coordinates
coor:                                          (in Angstroms)

siesta: Atomic coordinates (Bohr) and species
siesta:     17.74833  18.46276  21.31593  1        1
siesta:     20.07045  19.73619  19.03422  2        2
siesta:     20.09456  17.21879  19.02672  2        3
siesta:     17.88479  20.97914  19.16081  2        4
siesta:     22.67362  21.13488  18.91275  2        5
siesta:     17.88933  16.02127  19.22895  2        6
siesta:     15.68863  19.75110  19.24318  2        7
siesta:     22.67810  15.86031  18.91207  2        8
siesta:     18.02166  23.82598  18.92140  2        9
siesta:     24.95056  19.84782  18.89751  2       10
siesta:     22.64756  23.84514  18.89810  2       11
siesta:     24.95073  17.15313  18.89748  2       12
siesta:     15.68326  17.23367  19.26605  2       13
siesta:     20.40189  25.14130  18.89708  2       14
siesta:     18.02172  13.17531  18.92688  2       15
siesta:     13.43671  21.19555  18.92879  2       16
siesta:     22.64821  13.15513  18.89835  2       17
siesta:     15.78763  25.14431  18.89976  2       18
siesta:     13.43526  15.80337  18.92990  2       19
siesta:     20.40189  11.85889  18.89708  2       20
siesta:     13.44983  23.79491  18.89744  2       21
siesta:     15.78757  11.85649  18.89969  2       22
siesta:     11.13644  19.80039  18.89748  2       23
siesta:     13.44970  13.20573  18.89797  2       24
siesta:     11.13637  17.20046  18.89727  2       25
siesta:     26.75636  20.82458  18.89528  3       26
siesta:     24.42230  24.86790  18.89663  3       27
siesta:     26.75638  16.17625  18.89544  3       28
siesta:     20.39919  27.19066  18.89619  3       29
siesta:     24.42232  12.13282  18.89665  3       30
siesta:     15.73037  27.19086  18.89370  3       31
siesta:     20.39917   9.81006  18.89595  3       32
siesta:     11.70463  24.86669  18.89215  3       33
siesta:     15.73039   9.80991  18.89277  3       34
siesta:      9.36961  20.82328  18.89579  3       35
siesta:     11.70463  12.13407  18.89188  3       36
siesta:      9.36961  16.17750  18.89572  3       37

siesta: System type = molecule  

initatomlists: Number of atoms, orbitals, and projectors:     37   377   501

coxmol: Writing XMOL coordinates into file LiCoronene.xyz                                                      

siesta: ******************** Simulation parameters ****************************
siesta:
siesta: The following are some of the parameters of the simulation.
siesta: A complete list of the parameters used, including default values,
siesta: can be found in file out.fdf
siesta:
redata: Spin configuration                          = none
redata: Number of spin components                   = 1
redata: Time-Reversal Symmetry                      = T
redata: Spin-spiral                                 = F
redata: Long output                                 =   F
redata: Number of Atomic Species                    =        3
redata: Charge density info will appear in .RHO file
redata: Write Mulliken Pop.                         = NO
redata: Mesh Cutoff                                 =   300.0000 Ry
redata: Net charge of the system                    =     0.0000 |e|
redata: Min. number of SCF Iter                     =        0
redata: Max. number of SCF Iter                     =     1000
redata: SCF mix quantity                            = Hamiltonian
redata: Mix DM or H after convergence               =   F
redata: Recompute H after scf cycle                 =   F
redata: Mix DM in first SCF step                    =   T
redata: Write Pulay info on disk                    =   F
redata: New DM Mixing Weight                        =     0.2500
redata: New DM Occupancy tolerance                  = 0.000000000001
redata: No kicks to SCF
redata: DM Mixing Weight for Kicks                  =     0.5000
redata: Require Harris convergence for SCF          =   F
redata: Harris energy tolerance for SCF             =     0.000100 eV
redata: Require DM convergence for SCF              =   T
redata: DM tolerance for SCF                        =     0.0001
redata: Require EDM convergence for SCF             =   F
redata: EDM tolerance for SCF                       =     0.001000 eV
redata: Require H convergence for SCF               =   T
redata: Hamiltonian tolerance for SCF               =     0.001000 eV
redata: Require (free) Energy convergence for SCF   =   F
redata: (free) Energy tolerance for SCF             =     0.000100 eV
redata: Using Saved Data (generic)                  =   F
redata: Use continuation files for DM               =   F
redata: Neglect nonoverlap interactions             =   F
redata: Method of Calculation                       = Diagonalization
redata: Divide and Conquer                          =   T
redata: Electronic Temperature                      =   299.9869 K
redata: Fix the spin of the system                  =   F
redata: Dynamics option                             = Broyden coord. optimization
redata: Variable cell                               =   F
redata: Maximum number of CG moves                  =     1000
redata: Force tolerance                             =     0.0100 eV/Ang
mix.SCF: Pulay mixing                            = Pulay
mix.SCF:    Variant                              = stable
mix.SCF:    History steps                        = 2
mix.SCF:    Linear mixing weight                 =     0.250000
mix.SCF:    Mixing weight                        =     0.250000
mix.SCF:    SVD condition                        = 0.1000E-07
redata: ***********************************************************************

%block SCF.Mixers
  Pulay
%endblock SCF.Mixers

%block SCF.Mixer.Pulay
  # Mixing method
  method pulay
  variant stable

  # Mixing options
  weight 0.2500
  weight.linear 0.2500
  history 2
%endblock SCF.Mixer.Pulay

DM_history_depth set to one: no extrapolation allowed by default for geometry relaxation
Size of DM history Fstack: 1
Total number of electrons:   109.000000
Total ionic charge:   109.000000
 Kpoints in:            1 . Kpoints trimmed:            1

siesta: k-grid: Number of k-points =     1
siesta: k-grid: Cutoff (effective) =    10.000 Ang
siesta: k-grid: Supercell and displacements
siesta: k-grid:    1   0   0      0.000
siesta: k-grid:    0   1   0      0.000
siesta: k-grid:    0   0   1      0.000


                     ====================================
                        Begin Broyden opt. move =      0
                     ====================================

outcoor: Atomic coordinates (Ang):                          
    9.39201000    9.77007000   11.27990000   1       1  Li.gga
   10.62082000   10.44394000   10.07247000   2       2  C.gga
   10.63358000    9.11179000   10.06850000   2       3  C.gga
    9.46422000   11.10168000   10.13946000   2       4  C.gga
   11.99836000   11.18409000   10.00819000   2       5  C.gga
    9.46662000    8.47809000   10.17552000   2       6  C.gga
    8.30206000   10.45183000   10.18305000   2       7  C.gga
   12.00073000    8.39291000   10.00783000   2       8  C.gga
    9.53665000   12.60816000   10.01277000   2       9  C.gga
   13.20326000   10.50301000   10.00013000   2      10  C.gga
   11.98457000   12.61830000   10.00044000   2      11  C.gga
   13.20335000    9.07704000   10.00011000   2      12  C.gga
    8.29922000    9.11966000   10.19515000   2      13  C.gga
   10.79621000   13.30420000    9.99990000   2      14  C.gga
    9.53668000    6.97207000   10.01567000   2      15  C.gga
    7.11040000   11.21620000   10.01668000   2      16  C.gga
   11.98491000    6.96139000   10.00057000   2      17  C.gga
    8.35445000   13.30579000   10.00132000   2      18  C.gga
    7.10963000    8.36278000   10.01727000   2      19  C.gga
   10.79621000    6.27545000    9.99990000   2      20  C.gga
    7.11734000   12.59172000   10.00009000   2      21  C.gga
    8.35442000    6.27418000   10.00128000   2      22  C.gga
    5.89315000   10.47791000   10.00011000   2      23  C.gga
    7.11727000    6.98817000   10.00037000   2      24  C.gga
    5.89311000    9.10209000   10.00000000   2      25  C.gga
   14.15885000   11.01989000    9.99895000   3      26  H.gga
   12.92372000   13.15952000    9.99966000   3      27  H.gga
   14.15886000    8.56010000    9.99903000   3      28  H.gga
   10.79478000   14.38867000    9.99943000   3      29  H.gga
   12.92373000    6.42041000    9.99967000   3      30  H.gga
    8.32415000   14.38878000    9.99811000   3      31  H.gga
   10.79477000    5.19126000    9.99930000   3      32  H.gga
    6.19382000   13.15888000    9.99729000   3      33  H.gga
    8.32416000    5.19118000    9.99762000   3      34  H.gga
    4.95818000   11.01920000    9.99922000   3      35  H.gga
    6.19382000    6.42107000    9.99715000   3      36  H.gga
    4.95818000    8.56076000    9.99918000   3      37  H.gga

outcell: Unit cell vectors (Ang):
       20.000000    0.000000    0.000000
        0.000000   20.000000    0.000000
        0.000000    0.000000   20.000000

outcell: Cell vector modules (Ang)   :   20.000000   20.000000   20.000000
outcell: Cell angles (23,13,12) (deg):     90.0000     90.0000     90.0000
outcell: Cell volume (Ang**3)        :   8000.0000
<dSpData1D:S at geom step 0
  <sparsity:sparsity for geom step 0
    nrows_g=377 nrows=377 sparsity=.9339 nnzs=132733, refcount: 7>
  <dData1D:(new from dSpData1D) n=132733, refcount: 1>
refcount: 1>
new_DM -- step:     1
Initializing Density Matrix...
DM filled with atomic data:
<dSpData2D:DM initialized from atoms
  <sparsity:sparsity for geom step 0
    nrows_g=377 nrows=377 sparsity=.9339 nnzs=132733, refcount: 8>
  <dData2D:DM n=132733 m=1, refcount: 1>
refcount: 1>

No. of atoms with KB's overlaping orbs in proc 0. Max # of overlaps:      37     317
New grid distribution:   1
           1       1:  108    1:  108    1:  108

InitMesh: MESH =   216 x   216 x   216 =    10077696
InitMesh: (bp) =   108 x   108 x   108 =     1259712
InitMesh: Mesh cutoff (required, used) =   300.000   322.366 Ry
ExtMesh (bp) on 0 =   232 x   232 x   232 =    12487168
PhiOnMesh: Number of (b)points on node 0 =              1259712
PhiOnMesh: nlist on node 0 =              9016879

stepf: Fermi-Dirac step function

siesta: Program's energy decomposition (eV):
siesta: Ebs     =      -999.017945
siesta: Eions   =      6368.904408
siesta: Ena     =      1427.519447
siesta: Ekin    =      2968.812899
siesta: Enl     =      -359.084638
siesta: Eso     =         0.000000
siesta: Eldau   =         0.000000
siesta: DEna    =      -276.959619
siesta: DUscf   =        40.551763
siesta: DUext   =         0.000000
siesta: Exc     =     -1514.375217
siesta: eta*DQ  =         0.000000
siesta: Emadel  =         0.000000
siesta: Emeta   =         0.000000
siesta: Emolmec =         0.000000
siesta: Ekinion =         0.000000
siesta: Eharris =     -4027.052342
siesta: Etot    =     -4082.439773
siesta: FreeEng =     -4082.496751

        iscf     Eharris(eV)        E_KS(eV)     FreeEng(eV)     dDmax    Ef(eV) dHmax(eV)
   scf:    1    -4027.052342    -4082.439773    -4082.496751  1.894059 -6.531245 12.773984
timer: Routine,Calls,Time,% = IterSCF        1      12.863  51.65
   scf:    2    -4096.265204    -4090.264605    -4090.322260  0.108088 -4.803652  5.391332
   scf:    3    -4095.136943    -4093.290400    -4093.344912  0.121163 -3.047816  1.705554
   scf:    4    -4093.489948    -4093.456597    -4093.513975  0.055344 -2.677954  0.675754
   scf:    5    -4093.508419    -4093.503314    -4093.560300  0.029729 -2.679507  0.518639
   scf:    6    -4093.525764    -4093.517017    -4093.574830  0.010059 -2.661079  0.270236
   scf:    7    -4093.531458    -4093.524696    -4093.582366  0.004934 -2.637512  0.198620
   scf:    8    -4093.529777    -4093.528196    -4093.586110  0.007180 -2.598766  0.072853
   scf:    9    -4093.528481    -4093.528789    -4093.586494  0.005019 -2.592894  0.059437
   scf:   10    -4093.528741    -4093.528843    -4093.586654  0.001812 -2.590543  0.017063
   scf:   11    -4093.528915    -4093.528883    -4093.586673  0.000563 -2.588152  0.012387
   scf:   12    -4093.528850    -4093.528871    -4093.586683  0.000479 -2.585506  0.006883
   scf:   13    -4093.528914    -4093.528897    -4093.586687  0.000479 -2.584802  0.006106
   scf:   14    -4093.528879    -4093.528888    -4093.586689  0.000186 -2.584552  0.002430
   scf:   15    -4093.528894    -4093.528891    -4093.586689  0.000069 -2.584251  0.001762
   scf:   16    -4093.528886    -4093.528889    -4093.586689  0.000058 -2.583842  0.000999

SCF Convergence by DM+H criterion
max |DM_out - DM_in|         :     0.0000584728
max |H_out - H_in|      (eV) :     0.0009987638
SCF cycle converged after 16 iterations

Using DM_out to compute the final energy and forces
No. of atoms with KB's overlaping orbs in proc 0. Max # of overlaps:      37     317

siesta: E_KS(eV) =            -4093.5289

siesta: E_KS - E_eggbox =     -4093.5289

siesta: Atomic forces (eV/Ang):
----------------------------------------
   Tot    0.026144    0.005619    0.000369
----------------------------------------
   Max    8.967948
   Res    2.124608    sqrt( Sum f_i^2 / 3N )
----------------------------------------
   Max    8.967948    constrained

Stress-tensor-Voigt (kbar):       -8.03       -8.20       -1.49       -0.02       -0.06       -0.47
(Free)E + p*V (eV/cell)    -4064.0897
Target enthalpy (eV/cell)    -4093.5867

Broyden_optim: max_history for broyden:   5
Broyden_optim: cycle on maxit: T
Broyden_optim: initial inverse jacobian:   1.0000

Broyden_optim: No of elements:    111

                     ====================================
                        Begin Broyden opt. move =      1
                     ====================================

outcoor: Atomic coordinates (Ang):                          
    9.43714284    9.78135911   11.42232519   1       1  Li.gga
   10.77548064   10.52013083   10.05707472   2       2  C.gga
   10.77437193    9.04904023   10.05844586   2       3  C.gga
    9.49345612   11.26735797   10.10784197   2       4  C.gga
   11.94687914   11.19512991   10.01224753   2       5  C.gga
    9.49553520    8.29351583   10.13034773   2       6  C.gga
    8.19980277   10.53069288   10.14300468   2       7  C.gga
   11.95151083    8.37915261   10.01130548   2       8  C.gga
    9.56081646   12.58177774   10.02437730   2       9  C.gga
   13.20646097   10.45815776   10.00015062   2      10  C.gga
   11.97642460   12.60271245   10.00108933   2      11  C.gga
   13.20787545    9.12222127    9.99985188   2      12  C.gga
    8.19977659    9.04486023   10.15194195   2      13  C.gga
   10.78446686   13.28747253    9.99982347   2      14  C.gga
    9.55971654    6.99696843   10.03108140   2      15  C.gga
    7.07982195   11.18848669   10.02805073   2      16  C.gga
   11.97773968    6.97419493   10.00131001   2      17  C.gga
    8.29854080   13.29536046   10.00182841   2      18  C.gga
    7.07823058    8.38872015   10.02945920   2      19  C.gga
   10.78414257    6.29263325    9.99995464   2      20  C.gga
    7.15192733   12.63729835    9.99918782   2      21  C.gga
    8.29934615    6.28451322   10.00176923   2      22  C.gga
    5.89654588   10.47491500   10.00004449   2      23  C.gga
    7.15114318    6.94133277    9.99966893   2      24  C.gga
    5.89636554    9.10541868    9.99959693   2      25  C.gga
   14.16935066   11.03125650    9.99830137   3      26  H.gga
   12.93963347   13.16660968    9.99926422   3      27  H.gga
   14.16936940    8.54880303    9.99837912   3      28  H.gga
   10.79235099   14.40532693    9.99823946   3      29  H.gga
   12.93979704    6.41293284    9.99931152   3      30  H.gga
    8.32687277   14.40629544    9.99677906   3      31  H.gga
   10.79234948    5.17436955    9.99779550   3      32  H.gga
    6.17779841   13.16484138    9.99537414   3      33  H.gga
    8.32682142    5.17355776    9.99584237   3      34  H.gga
    4.94055578   11.02934810    9.99766421   3      35  H.gga
    6.17778262    6.41498500    9.99511173   3      36  H.gga
    4.94058540    8.55060617    9.99745539   3      37  H.gga

outcell: Unit cell vectors (Ang):
       20.000000    0.000000    0.000000
        0.000000   20.000000    0.000000
        0.000000    0.000000   20.000000

outcell: Cell vector modules (Ang)   :   20.000000   20.000000   20.000000
outcell: Cell angles (23,13,12) (deg):     90.0000     90.0000     90.0000
outcell: Cell volume (Ang**3)        :   8000.0000
<dSpData1D:S at geom step 1
  <sparsity:sparsity for geom step 1
    nrows_g=377 nrows=377 sparsity=.9351 nnzs=132901, refcount: 7>
  <dData1D:(new from dSpData1D) n=132901, refcount: 1>
refcount: 1>
new_DM -- step:     2
Re-using DM from previous geometries...
Number of DMs in history: 1
 DM extrapolation coefficients: 
1   1.00000
New DM after history re-use:
<dSpData2D:SpM extrapolated using coords
  <sparsity:sparsity for geom step 1
    nrows_g=377 nrows=377 sparsity=.9351 nnzs=132901, refcount: 8>
  <dData2D:(temp array for extrapolation) n=132901 m=1, refcount: 1>
refcount: 1>
No. of atoms with KB's overlaping orbs in proc 0. Max # of overlaps:      37     317
New grid distribution:   1
           1       1:  108    1:  108    1:  108

InitMesh: MESH =   216 x   216 x   216 =    10077696
InitMesh: (bp) =   108 x   108 x   108 =     1259712
InitMesh: Mesh cutoff (required, used) =   300.000   322.366 Ry
ExtMesh (bp) on 0 =   232 x   232 x   232 =    12487168
PhiOnMesh: Number of (b)points on node 0 =              1259712
PhiOnMesh: nlist on node 0 =              9015103

        iscf     Eharris(eV)        E_KS(eV)     FreeEng(eV)     dDmax    Ef(eV) dHmax(eV)
   scf:    1    -4094.258908    -4094.178228    -4094.219413  0.220739 -2.141496  2.990048
   scf:    2    -4065.561059    -4086.158497    -4086.194655  0.200070 -2.929856 10.329254
   scf:    3    -4098.590821    -4095.128095    -4095.178633  0.081835 -2.244445  1.717666
   scf:    4    -4094.536545    -4095.164080    -4095.209662  0.105873 -2.263673  1.413257
   scf:    5    -4095.333607    -4095.335836    -4095.393783  0.058204 -2.260386  0.154322
   scf:    6    -4095.342556    -4095.339856    -4095.397712  0.003266 -2.268661  0.043310
   scf:    7    -4095.341590    -4095.340802    -4095.398683  0.001596 -2.270829  0.032147
   scf:    8    -4095.341383    -4095.341175    -4095.398955  0.001597 -2.271592  0.028620
   scf:    9    -4095.340993    -4095.341129    -4095.398995  0.001301 -2.271288  0.014691
   scf:   10    -4095.341268    -4095.341203    -4095.399046  0.000384 -2.271372  0.009020
   scf:   11    -4095.341228    -4095.341216    -4095.399067  0.000347 -2.271422  0.005927
   scf:   12    -4095.341261    -4095.341241    -4095.399075  0.000269 -2.271513  0.005320
   scf:   13    -4095.341221    -4095.341232    -4095.399077  0.000197 -2.271528  0.003501
   scf:   14    -4095.341242    -4095.341237    -4095.399080  0.000102 -2.271593  0.002405
   scf:   15    -4095.341232    -4095.341235    -4095.399082  0.000114 -2.271666  0.001629
   scf:   16    -4095.341245    -4095.341240    -4095.399082  0.000077 -2.271694  0.001562
   scf:   17    -4095.341236    -4095.341238    -4095.399082  0.000044 -2.271722  0.000980

SCF Convergence by DM+H criterion
max |DM_out - DM_in|         :     0.0000436626
max |H_out - H_in|      (eV) :     0.0009797039
SCF cycle converged after 17 iterations

Using DM_out to compute the final energy and forces
No. of atoms with KB's overlaping orbs in proc 0. Max # of overlaps:      37     317

siesta: E_KS(eV) =            -4095.3412

siesta: Atomic forces (eV/Ang):
----------------------------------------
   Tot    0.007115   -0.022239    0.000918
----------------------------------------
   Max    7.518409
   Res    2.060987    sqrt( Sum f_i^2 / 3N )
----------------------------------------
   Max    7.518409    constrained

Stress-tensor-Voigt (kbar):       -7.40       -7.79       -0.66        0.00       -0.07       -0.49
(Free)E + p*V (eV/cell)    -4069.0130
Target enthalpy (eV/cell)    -4095.3991

                     ====================================
                        Begin Broyden opt. move =      2
                     ====================================

outcoor: Atomic coordinates (Ang):                          
    9.44455253    9.78226422   11.44836671   1       1  Li.gga
   10.73718579   10.49608488   10.05755106   2       2  C.gga
   10.73838434    9.07210923   10.05988033   2       3  C.gga
    9.49685533   11.20240010   10.10476972   2       4  C.gga
   11.98924325   11.20412056   10.01184881   2       5  C.gga
    9.49743203    8.37229516   10.12602542   2       6  C.gga
    8.26835903   10.49747406   10.13873388   2       7  C.gga
   11.99213893    8.37227389   10.01107593   2       8  C.gga
    9.54972100   12.63910367   10.02352385   2       9  C.gga
   13.20752399   10.48295695   10.00004247   2      10  C.gga
   11.98344076   12.61273010   10.00124721   2      11  C.gga
   13.20860446    9.09679259    9.99955794   2      12  C.gga
    8.26711416    9.07554449   10.14731300   2      13  C.gga
   10.78682058   13.30100047    9.99974366   2      14  C.gga
    9.54951166    6.92973427   10.02935967   2      15  C.gga
    7.04263501   11.23059800   10.02678099   2      16  C.gga
   11.98426810    6.96362692   10.00146308   2      17  C.gga
    8.32344014   13.31404215   10.00219943   2      18  C.gga
    7.04225337    8.34789558   10.02834931   2      19  C.gga
   10.78755575    6.27782224    9.99993857   2      20  C.gga
    7.11850321   12.62592000    9.99908396   2      21  C.gga
    8.32267854    6.26503843   10.00232881   2      22  C.gga
    5.87272240   10.48064004    9.99981305   2      23  C.gga
    7.11837149    6.95234265    9.99960306   2      24  C.gga
    5.87232323    9.09929667    9.99917792   2      25  C.gga
   14.16523256   11.02998241    9.99813855   3      26  H.gga
   12.93776291   13.16351627    9.99901006   3      27  H.gga
   14.16568836    8.55006916    9.99817341   3      28  H.gga
   10.79060080   14.40186807    9.99768612   3      29  H.gga
   12.93845730    6.41532802    9.99902731   3      30  H.gga
    8.32646921   14.40532376    9.99640042   3      31  H.gga
   10.79057066    5.17793332    9.99716404   3      32  H.gga
    6.17790545   13.16640703    9.99473726   3      33  H.gga
    8.32645761    5.17450153    9.99537006   3      34  H.gga
    4.93926850   11.02953149    9.99684864   3      35  H.gga
    6.17758745    6.41306389    9.99440496   3      36  H.gga
    4.93922277    8.55049038    9.99656855   3      37  H.gga

outcell: Unit cell vectors (Ang):
       20.000000    0.000000    0.000000
        0.000000   20.000000    0.000000
        0.000000    0.000000   20.000000

outcell: Cell vector modules (Ang)   :   20.000000   20.000000   20.000000
outcell: Cell angles (23,13,12) (deg):     90.0000     90.0000     90.0000
outcell: Cell volume (Ang**3)        :   8000.0000
<dSpData1D:S at geom step 2
  <sparsity:sparsity for geom step 2
    nrows_g=377 nrows=377 sparsity=.9344 nnzs=132805, refcount: 7>
  <dData1D:(new from dSpData1D) n=132805, refcount: 1>
refcount: 1>
new_DM -- step:     3
Re-using DM from previous geometries...
Number of DMs in history: 1
 DM extrapolation coefficients: 
1   1.00000
New DM after history re-use:
<dSpData2D:SpM extrapolated using coords
  <sparsity:sparsity for geom step 2
    nrows_g=377 nrows=377 sparsity=.9344 nnzs=132805, refcount: 8>
  <dData2D:(temp array for extrapolation) n=132805 m=1, refcount: 1>
refcount: 1>
No. of atoms with KB's overlaping orbs in proc 0. Max # of overlaps:      37     317
New grid distribution:   1
           1       1:  108    1:  108    1:  108

InitMesh: MESH =   216 x   216 x   216 =    10077696
InitMesh: (bp) =   108 x   108 x   108 =     1259712
InitMesh: Mesh cutoff (required, used) =   300.000   322.366 Ry
ExtMesh (bp) on 0 =   232 x   232 x   232 =    12487168
PhiOnMesh: Number of (b)points on node 0 =              1259712
PhiOnMesh: nlist on node 0 =              9016026

        iscf     Eharris(eV)        E_KS(eV)     FreeEng(eV)     dDmax    Ef(eV) dHmax(eV)
   scf:    1    -4097.435769    -4097.166336    -4097.224348  0.099663 -2.596146  1.034597
   scf:    2    -4089.810669    -4095.045570    -4095.094581  0.090503 -2.447407  4.381537
   scf:    3    -4097.769971    -4097.451245    -4097.508139  0.096877 -2.529578  0.327929
   scf:    4    -4097.473590    -4097.469247    -4097.527356  0.012453 -2.519470  0.084174
   scf:    5    -4097.471503    -4097.470981    -4097.528889  0.004875 -2.520561  0.034262
   scf:    6    -4097.471191    -4097.471236    -4097.529281  0.002161 -2.521129  0.023564
   scf:    7    -4097.471521    -4097.471404    -4097.529403  0.001039 -2.521520  0.010063
   scf:    8    -4097.471455    -4097.471435    -4097.529452  0.000352 -2.521671  0.007363
   scf:    9    -4097.471498    -4097.471469    -4097.529473  0.000349 -2.521719  0.003763
   scf:   10    -4097.471461    -4097.471466    -4097.529479  0.000157 -2.521628  0.002875
   scf:   11    -4097.471479    -4097.471473    -4097.529482  0.000105 -2.521559  0.001776
   scf:   12    -4097.471471    -4097.471472    -4097.529483  0.000064 -2.521461  0.001257
   scf:   13    -4097.471477    -4097.471474    -4097.529484  0.000051 -2.521365  0.000758

SCF Convergence by DM+H criterion
max |DM_out - DM_in|         :     0.0000513965
max |H_out - H_in|      (eV) :     0.0007576485
SCF cycle converged after 13 iterations

Using DM_out to compute the final energy and forces
No. of atoms with KB's overlaping orbs in proc 0. Max # of overlaps:      37     317

siesta: E_KS(eV) =            -4097.4715

siesta: Atomic forces (eV/Ang):
----------------------------------------
   Tot    0.023900    0.008509    0.000383
----------------------------------------
   Max    2.972153
   Res    0.578866    sqrt( Sum f_i^2 / 3N )
----------------------------------------
   Max    2.972153    constrained

Stress-tensor-Voigt (kbar):       -5.56       -5.56       -0.77       -0.01       -0.03       -0.27
(Free)E + p*V (eV/cell)    -4077.7580
Target enthalpy (eV/cell)    -4097.5295

                     ====================================
                        Begin Broyden opt. move =      3
                     ====================================

outcoor: Atomic coordinates (Ang):                          
    9.45995536    9.78438726   11.50463696   1       1  Li.gga
   10.74292429   10.49630270   10.05483501   2       2  C.gga
   10.74343313    9.07563697   10.05832395   2       3  C.gga
    9.51382436   11.21051374   10.09189492   2       4  C.gga
   11.99677457   11.20295451   10.01303573   2       5  C.gga
    9.51325608    8.35969968   10.10876595   2       6  C.gga
    8.26688384   10.50318781   10.12040712   2       7  C.gga
   11.99952624    8.37258992   10.01261025   2       8  C.gga
    9.54213180   12.63391349   10.02745047   2       9  C.gga
   13.21491718   10.47990368   10.00007193   2      10  C.gga
   11.98629171   12.62505683   10.00153625   2      11  C.gga
   13.21517793    9.09945859    9.99941920   2      12  C.gga
    8.26724105    9.07124953   10.12769003   2      13  C.gga
   10.79703203   13.31633300   10.00020847   2      14  C.gga
    9.54174465    6.94185122   10.03442135   2      15  C.gga
    7.05738231   11.22563937   10.03276539   2      16  C.gga
   11.98786531    6.95256306   10.00175885   2      17  C.gga
    8.31105415   13.32346999   10.00284763   2      18  C.gga
    7.05600539    8.35153100   10.03484665   2      19  C.gga
   10.79864501    6.25923292   10.00063064   2      20  C.gga
    7.11361617   12.64101422    9.99948518   2      21  C.gga
    8.30992166    6.25241936   10.00317677   2      22  C.gga
    5.85191565   10.47900582   10.00026433   2      23  C.gga
    7.11243614    6.93850131   10.00009134   2      24  C.gga
    5.85210585    9.10077240    9.99962276   2      25  C.gga
   14.16644745   11.03259224    9.99770028   3      26  H.gga
   12.94083390   13.16408589    9.99849518   3      27  H.gga
   14.16741045    8.54739093    9.99764797   3      28  H.gga
   10.78992948   14.40608092    9.99663435   3      29  H.gga
   12.94208092    6.41387179    9.99844502   3      30  H.gga
    8.32552394   14.41572990    9.99544203   3      31  H.gga
   10.79032202    5.17287698    9.99591117   3      32  H.gga
    6.16598419   13.17648347    9.99320472   3      33  H.gga
    8.32503046    5.16333662    9.99416842   3      34  H.gga
    4.92321234   11.03529244    9.99527036   3      35  H.gga
    6.16550426    6.40263974    9.99274016   3      36  H.gga
    4.92295762    8.54467741    9.99485843   3      37  H.gga

outcell: Unit cell vectors (Ang):
       20.000000    0.000000    0.000000
        0.000000   20.000000    0.000000
        0.000000    0.000000   20.000000

outcell: Cell vector modules (Ang)   :   20.000000   20.000000   20.000000
outcell: Cell angles (23,13,12) (deg):     90.0000     90.0000     90.0000
outcell: Cell volume (Ang**3)        :   8000.0000
<dSpData1D:S at geom step 3
  <sparsity:sparsity for geom step 3
    nrows_g=377 nrows=377 sparsity=.9344 nnzs=132805, refcount: 7>
  <dData1D:(new from dSpData1D) n=132805, refcount: 1>
refcount: 1>
new_DM -- step:     4
Re-using DM from previous geometries...
Number of DMs in history: 1
 DM extrapolation coefficients: 
1   1.00000
New DM after history re-use:
<dSpData2D:SpM extrapolated using coords
  <sparsity:sparsity for geom step 3
    nrows_g=377 nrows=377 sparsity=.9344 nnzs=132805, refcount: 8>
  <dData2D:(temp array for extrapolation) n=132805 m=1, refcount: 1>
refcount: 1>
No. of atoms with KB's overlaping orbs in proc 0. Max # of overlaps:      37     317
New grid distribution:   1
           1       1:  108    1:  108    1:  108

InitMesh: MESH =   216 x   216 x   216 =    10077696
InitMesh: (bp) =   108 x   108 x   108 =     1259712
InitMesh: Mesh cutoff (required, used) =   300.000   322.366 Ry
ExtMesh (bp) on 0 =   232 x   232 x   232 =    12487168
PhiOnMesh: Number of (b)points on node 0 =              1259712
PhiOnMesh: nlist on node 0 =              9016778

        iscf     Eharris(eV)        E_KS(eV)     FreeEng(eV)     dDmax    Ef(eV) dHmax(eV)
   scf:    1    -4098.541743    -4097.858013    -4097.916161  0.023407 -2.486200  0.619256
   scf:    2    -4095.781488    -4097.235329    -4097.293206  0.035908 -2.471676  2.419808
   scf:    3    -4098.016865    -4097.903175    -4097.961320  0.031658 -2.471511  0.046947
   scf:    4    -4097.903905    -4097.903643    -4097.961785  0.001077 -2.469747  0.027739
   scf:    5    -4097.903740    -4097.903701    -4097.961845  0.000479 -2.469317  0.011955
   scf:    6    -4097.903733    -4097.903720    -4097.961862  0.000336 -2.469300  0.007970
   scf:    7    -4097.903725    -4097.903723    -4097.961867  0.000198 -2.469327  0.003234
   scf:    8    -4097.903727    -4097.903725    -4097.961869  0.000102 -2.469321  0.002656
   scf:    9    -4097.903726    -4097.903726    -4097.961869  0.000056 -2.469301  0.001269
   scf:   10    -4097.903727    -4097.903726    -4097.961870  0.000044 -2.469271  0.000914

SCF Convergence by DM+H criterion
max |DM_out - DM_in|         :     0.0000440000
max |H_out - H_in|      (eV) :     0.0009136373
SCF cycle converged after 10 iterations

Using DM_out to compute the final energy and forces
No. of atoms with KB's overlaping orbs in proc 0. Max # of overlaps:      37     317

siesta: E_KS(eV) =            -4097.9037

siesta: Atomic forces (eV/Ang):
----------------------------------------
   Tot    0.015090    0.011722   -0.000466
----------------------------------------
   Max    2.285492
   Res    0.388681    sqrt( Sum f_i^2 / 3N )
----------------------------------------
   Max    2.285492    constrained

Stress-tensor-Voigt (kbar):       -4.60       -4.80       -0.63       -0.00       -0.02       -0.20
(Free)E + p*V (eV/cell)    -4081.2643
Target enthalpy (eV/cell)    -4097.9619

                     ====================================
                        Begin Broyden opt. move =      4
                     ====================================

outcoor: Atomic coordinates (Ang):                          
    9.47753109    9.78655961   11.57661930   1       1  Li.gga
   10.76094037   10.50233619   10.05020040   2       2  C.gga
   10.76070893    9.07060649   10.05458764   2       3  C.gga
    9.51984767   11.21772642   10.07617977   2       4  C.gga
   12.00238702   11.20968282   10.01485061   2       5  C.gga
    9.52027846    8.35693642   10.08835276   2       6  C.gga
    8.27955329   10.50299510   10.09762935   2       7  C.gga
   12.00349918    8.36759636   10.01511584   2       8  C.gga
    9.54654351   12.64425088   10.03106382   2       9  C.gga
   13.22365090   10.48091545   10.00033530   2      10  C.gga
   11.99106337   12.62816914   10.00205795   2      11  C.gga
   13.22448559    9.09756727    9.99953046   2      12  C.gga
    8.27881966    9.07105796   10.10337872   2      13  C.gga
   10.79088703   13.32087256   10.00172685   2      14  C.gga
    9.54635985    6.92858232   10.03843572   2      15  C.gga
    7.04988366   11.22772775   10.03801410   2      16  C.gga
   11.99232433    6.94739754   10.00224748   2      17  C.gga
    8.30486286   13.33463311   10.00427816   2      18  C.gga
    7.04927864    8.35071685   10.04070874   2      19  C.gga
   10.79237135    6.25760014   10.00277203   2      20  C.gga
    7.10190916   12.64588435   10.00109383   2      21  C.gga
    8.30333500    6.24408531   10.00519978   2      22  C.gga
    5.84492527   10.48278778   10.00210998   2      23  C.gga
    7.10145927    6.93094731   10.00180941   2      24  C.gga
    5.84441588    9.09642316   10.00156418   2      25  C.gga
   14.17118352   11.03719401    9.99697023   3      26  H.gga
   12.94993928   13.16825093    9.99761026   3      27  H.gga
   14.17224383    8.54291684    9.99677445   3      28  H.gga
   10.78964217   14.42196712    9.99518417   3      29  H.gga
   12.95172862    6.40905967    9.99741738   3      30  H.gga
    8.32428157   14.43165241    9.99399003   3      31  H.gga
   10.79043354    5.15391967    9.99423039   3      32  H.gga
    6.14922266   13.18993571    9.99102933   3      33  H.gga
    8.32333751    5.14461272    9.99241330   3      34  H.gga
    4.89817436   11.04550111    9.99301940   3      35  H.gga
    6.14828198    6.38887324    9.99035512   3      36  H.gga
    4.89800226    8.53460776    9.99245128   3      37  H.gga

outcell: Unit cell vectors (Ang):
       20.000000    0.000000    0.000000
        0.000000   20.000000    0.000000
        0.000000    0.000000   20.000000

outcell: Cell vector modules (Ang)   :   20.000000   20.000000   20.000000
outcell: Cell angles (23,13,12) (deg):     90.0000     90.0000     90.0000
outcell: Cell volume (Ang**3)        :   8000.0000
<dSpData1D:S at geom step 4
  <sparsity:sparsity for geom step 4
    nrows_g=377 nrows=377 sparsity=.9341 nnzs=132757, refcount: 7>
  <dData1D:(new from dSpData1D) n=132757, refcount: 1>
refcount: 1>
new_DM -- step:     5
Re-using DM from previous geometries...
Number of DMs in history: 1
 DM extrapolation coefficients: 
1   1.00000
New DM after history re-use:
<dSpData2D:SpM extrapolated using coords
  <sparsity:sparsity for geom step 4
    nrows_g=377 nrows=377 sparsity=.9341 nnzs=132757, refcount: 8>
  <dData2D:(temp array for extrapolation) n=132757 m=1, refcount: 1>
refcount: 1>
Note: For starting DM, Qtot, Tr[D*S] =        109.00000000        108.88805013
No. of atoms with KB's overlaping orbs in proc 0. Max # of overlaps:      37     317
New grid distribution:   1
           1       1:  108    1:  108    1:  108

InitMesh: MESH =   216 x   216 x   216 =    10077696
InitMesh: (bp) =   108 x   108 x   108 =     1259712
InitMesh: Mesh cutoff (required, used) =   300.000   322.366 Ry
ExtMesh (bp) on 0 =   232 x   232 x   232 =    12487168
PhiOnMesh: Number of (b)points on node 0 =              1259712
PhiOnMesh: nlist on node 0 =              9016636

        iscf     Eharris(eV)        E_KS(eV)     FreeEng(eV)     dDmax    Ef(eV) dHmax(eV)
   scf:    1    -4098.731355    -4098.149333    -4098.207478  0.022079 -2.421245  1.279747
   scf:    2    -4091.800994    -4096.229232    -4096.286773  0.064736 -2.619801  4.858217
   scf:    3    -4098.573983    -4098.269074    -4098.327218  0.060377 -2.455314  0.165275
   scf:    4    -4098.271853    -4098.270992    -4098.329124  0.002170 -2.461732  0.036528
   scf:    5    -4098.271166    -4098.271107    -4098.329247  0.001019 -2.464666  0.018620
   scf:    6    -4098.271151    -4098.271137    -4098.329271  0.000620 -2.465974  0.005799
   scf:    7    -4098.271134    -4098.271139    -4098.329277  0.000340 -2.466279  0.004325
   scf:    8    -4098.271145    -4098.271142    -4098.329279  0.000163 -2.466373  0.002105
   scf:    9    -4098.271142    -4098.271142    -4098.329279  0.000068 -2.466443  0.001543
   scf:   10    -4098.271144    -4098.271143    -4098.329280  0.000057 -2.466493  0.000635

SCF Convergence by DM+H criterion
max |DM_out - DM_in|         :     0.0000566196
max |H_out - H_in|      (eV) :     0.0006348673
SCF cycle converged after 10 iterations

Using DM_out to compute the final energy and forces
No. of atoms with KB's overlaping orbs in proc 0. Max # of overlaps:      37     317

siesta: E_KS(eV) =            -4098.2711

siesta: Atomic forces (eV/Ang):
----------------------------------------
   Tot    0.012191    0.028195   -0.000676
----------------------------------------
   Max    1.602445
   Res    0.260659    sqrt( Sum f_i^2 / 3N )
----------------------------------------
   Max    1.602445    constrained

Stress-tensor-Voigt (kbar):       -3.55       -3.61       -0.47       -0.01       -0.01       -0.12
(Free)E + p*V (eV/cell)    -4085.6338
Target enthalpy (eV/cell)    -4098.3293

                     ====================================
                        Begin Broyden opt. move =      5
                     ====================================

outcoor: Atomic coordinates (Ang):                          
    9.50149709    9.78935011   11.68055702   1       1  Li.gga
   10.77532265   10.50456287   10.04322594   2       2  C.gga
   10.77557915    9.07225095   10.04772026   2       3  C.gga
    9.53497373   11.22347965   10.05382292   2       4  C.gga
   12.02093592   11.21982713   10.01747232   2       5  C.gga
    9.53440069    8.35041457   10.06007213   2       6  C.gga
    8.28789697   10.50893574   10.06465004   2       7  C.gga
   12.02169880    8.35585028   10.01881795   2       8  C.gga
    9.53900846   12.66057421   10.03459663   2       9  C.gga
   13.23455863   10.47921596   10.00115131   2      10  C.gga
   11.99352935   12.64050199   10.00305691   2      11  C.gga
   13.23426454    9.09878807   10.00034119   2      12  C.gga
    8.28846162    9.06738100   10.06821585   2      13  C.gga
   10.79705923   13.33690179   10.00485101   2      14  C.gga
    9.53920996    6.91704445   10.04221860   2      15  C.gga
    7.04480216   11.22813499   10.04355176   2      16  C.gga
   11.99603984    6.93777854   10.00335672   2      17  C.gga
    8.29510666   13.34705232   10.00714024   2      18  C.gga
    7.04324087    8.34769194   10.04670987   2      19  C.gga
   10.79714606    6.23660183   10.00679118   2      20  C.gga
    7.08706157   12.65871847   10.00506466   2      21  C.gga
    8.29527348    6.22674193   10.00896254   2      22  C.gga
    5.82335675   10.49062250   10.00608170   2      23  C.gga
    7.08493309    6.92017530   10.00613780   2      24  C.gga
    5.82354809    9.08847268   10.00594028   2      25  C.gga
   14.18252668   11.04561202    9.99565288   3      26  H.gga
   12.96267864   13.17507162    9.99596033   3      27  H.gga
   14.18421814    8.53415921    9.99519754   3      28  H.gga
   10.78912757   14.44061163    9.99296198   3      29  H.gga
   12.96497486    6.40117846    9.99547454   3      30  H.gga
    8.32109463   14.45492577    9.99160131   3      31  H.gga
   10.79054519    5.13548415    9.99175662   3      32  H.gga
    6.12728001   13.20795447    9.98764530   3      33  H.gga
    8.31940406    5.12177186    9.98968413   3      34  H.gga
    4.87139950   11.05414986    9.98949349   3      35  H.gga
    6.12575900    6.37001157    9.98663964   3      36  H.gga
    4.87063374    8.52562376    9.98870813   3      37  H.gga

outcell: Unit cell vectors (Ang):
       20.000000    0.000000    0.000000
        0.000000   20.000000    0.000000
        0.000000    0.000000   20.000000

outcell: Cell vector modules (Ang)   :   20.000000   20.000000   20.000000
outcell: Cell angles (23,13,12) (deg):     90.0000     90.0000     90.0000
outcell: Cell volume (Ang**3)        :   8000.0000
<dSpData1D:S at geom step 5
  <sparsity:sparsity for geom step 5
    nrows_g=377 nrows=377 sparsity=.9330 nnzs=132613, refcount: 7>
  <dData1D:(new from dSpData1D) n=132613, refcount: 1>
refcount: 1>
new_DM -- step:     6
Re-using DM from previous geometries...
Number of DMs in history: 1
 DM extrapolation coefficients: 
1   1.00000
New DM after history re-use:
<dSpData2D:SpM extrapolated using coords
  <sparsity:sparsity for geom step 5
    nrows_g=377 nrows=377 sparsity=.9330 nnzs=132613, refcount: 8>
  <dData2D:(temp array for extrapolation) n=132613 m=1, refcount: 1>
refcount: 1>
Note: For starting DM, Qtot, Tr[D*S] =        109.00000000        108.84761849
No. of atoms with KB's overlaping orbs in proc 0. Max # of overlaps:      37     317
New grid distribution:   1
           1       1:  108    1:  108    1:  108

InitMesh: MESH =   216 x   216 x   216 =    10077696
InitMesh: (bp) =   108 x   108 x   108 =     1259712
InitMesh: Mesh cutoff (required, used) =   300.000   322.366 Ry
ExtMesh (bp) on 0 =   232 x   232 x   232 =    12487168
PhiOnMesh: Number of (b)points on node 0 =              1259712
PhiOnMesh: nlist on node 0 =              9017021

        iscf     Eharris(eV)        E_KS(eV)     FreeEng(eV)     dDmax    Ef(eV) dHmax(eV)
   scf:    1    -4099.443351    -4098.447337    -4098.505227  0.030658 -2.424961  1.315688
   scf:    2    -4091.901234    -4096.469532    -4096.525081  0.062358 -2.595446  4.956003
   scf:    3    -4098.899661    -4098.570293    -4098.628439  0.054906 -2.448729  0.152051
   scf:    4    -4098.572772    -4098.571957    -4098.630085  0.002513 -2.454673  0.038630
   scf:    5    -4098.572157    -4098.572107    -4098.630251  0.001265 -2.458029  0.017020
   scf:    6    -4098.572164    -4098.572153    -4098.630286  0.000903 -2.459442  0.012035
   scf:    7    -4098.572151    -4098.572157    -4098.630297  0.000448 -2.459813  0.006264
   scf:    8    -4098.572168    -4098.572163    -4098.630301  0.000196 -2.460054  0.004159
   scf:    9    -4098.572164    -4098.572164    -4098.630303  0.000092 -2.460211  0.002309
   scf:   10    -4098.572167    -4098.572165    -4098.630303  0.000082 -2.460292  0.001461
   scf:   11    -4098.572165    -4098.572165    -4098.630304  0.000043 -2.460300  0.000826

SCF Convergence by DM+H criterion
max |DM_out - DM_in|         :     0.0000425927
max |H_out - H_in|      (eV) :     0.0008261264
SCF cycle converged after 11 iterations

Using DM_out to compute the final energy and forces
No. of atoms with KB's overlaping orbs in proc 0. Max # of overlaps:      37     317

siesta: E_KS(eV) =            -4098.5722

siesta: Atomic forces (eV/Ang):
----------------------------------------
   Tot   -0.000941    0.010743   -0.000460
----------------------------------------
   Max    0.804377
   Res    0.178329    sqrt( Sum f_i^2 / 3N )
----------------------------------------
   Max    0.804377    constrained

Stress-tensor-Voigt (kbar):       -2.01       -2.12       -0.26        0.00       -0.00       -0.04
(Free)E + p*V (eV/cell)    -4091.3260
Target enthalpy (eV/cell)    -4098.6303

                     ====================================
                        Begin Broyden opt. move =      6
                     ====================================

outcoor: Atomic coordinates (Ang):                          
    9.50926841    9.79018945   11.71657278   1       1  Li.gga
   10.78073787   10.50641781   10.04023288   2       2  C.gga
   10.78071703    9.07040349   10.04439545   2       3  C.gga
    9.53734246   11.22695320   10.04643457   2       4  C.gga
   12.02539093   11.22195489   10.01847268   2       5  C.gga
    9.53736605    8.34928095   10.05112767   2       6  C.gga
    8.28975915   10.50857532   10.05381351   2       7  C.gga
   12.02583369    8.35493368   10.02019486   2       8  C.gga
    9.54042247   12.66494344   10.03478901   2       9  C.gga
   13.24125766   10.48334142   10.00169619   2      10  C.gga
   11.99878027   12.64650958   10.00360921   2      11  C.gga
   13.24145345    9.09426963   10.00099770   2      12  C.gga
    8.28964207    9.06754117   10.05667022   2      13  C.gga
   10.79584431   13.34456561   10.00645810   2      14  C.gga
    9.54064409    6.91059954   10.04205307   2      15  C.gga
    7.04139012   11.23119558   10.04369934   2      16  C.gga
   11.99980686    6.92955731   10.00400887   2      17  C.gga
    8.29006817   13.35496993   10.00840315   2      18  C.gga
    7.04033003    8.34585975   10.04688782   2      19  C.gga
   10.79710708    6.23136611   10.00879797   2      20  C.gga
    7.08118580   12.66249321   10.00722751   2      21  C.gga
    8.28906190    6.22128109   10.01063133   2      22  C.gga
    5.81629794   10.48743849   10.00814711   2      23  C.gga
    7.08057189    6.91407134   10.00843341   2      24  C.gga
    5.81613045    9.09118244   10.00821173   2      25  C.gga
   14.18681553   11.04764468    9.99504686   3      26  H.gga
   12.96577689   13.17776795    9.99519110   3      27  H.gga
   14.18834005    8.53210710    9.99449136   3      28  H.gga
   10.78959935   14.44711504    9.99220070   3      29  H.gga
   12.96804012    6.39848016    9.99456486   3      30  H.gga
    8.31912576   14.46077745    9.99070694   3      31  H.gga
   10.79110642    5.12785314    9.99094268   3      32  H.gga
    6.12110851   13.21348764    9.98649122   3      33  H.gga
    8.31732322    5.11475365    9.98869833   3      34  H.gga
    4.86323111   11.05640274    9.98821802   3      35  H.gga
    6.11936037    6.36431423    9.98536465   3      36  H.gga
    4.86248895    8.52337512    9.98738970   3      37  H.gga

outcell: Unit cell vectors (Ang):
       20.000000    0.000000    0.000000
        0.000000   20.000000    0.000000
        0.000000    0.000000   20.000000

outcell: Cell vector modules (Ang)   :   20.000000   20.000000   20.000000
outcell: Cell angles (23,13,12) (deg):     90.0000     90.0000     90.0000
outcell: Cell volume (Ang**3)        :   8000.0000
<dSpData1D:S at geom step 6
  <sparsity:sparsity for geom step 6
    nrows_g=377 nrows=377 sparsity=.9330 nnzs=132613, refcount: 7>
  <dData1D:(new from dSpData1D) n=132613, refcount: 1>
refcount: 1>
new_DM -- step:     7
Re-using DM from previous geometries...
Number of DMs in history: 1
 DM extrapolation coefficients: 
1   1.00000
New DM after history re-use:
<dSpData2D:SpM extrapolated using coords
  <sparsity:sparsity for geom step 6
    nrows_g=377 nrows=377 sparsity=.9330 nnzs=132613, refcount: 8>
  <dData2D:(temp array for extrapolation) n=132613 m=1, refcount: 1>
refcount: 1>
No. of atoms with KB's overlaping orbs in proc 0. Max # of overlaps:      37     317
New grid distribution:   1
           1       1:  108    1:  108    1:  108

InitMesh: MESH =   216 x   216 x   216 =    10077696
InitMesh: (bp) =   108 x   108 x   108 =     1259712
InitMesh: Mesh cutoff (required, used) =   300.000   322.366 Ry
ExtMesh (bp) on 0 =   232 x   232 x   232 =    12487168
PhiOnMesh: Number of (b)points on node 0 =              1259712
PhiOnMesh: nlist on node 0 =              9017332

        iscf     Eharris(eV)        E_KS(eV)     FreeEng(eV)     dDmax    Ef(eV) dHmax(eV)
   scf:    1    -4099.073177    -4098.634848    -4098.692995  0.013175 -2.454263  0.220553
   scf:    2    -4098.501152    -4098.596376    -4098.654389  0.010458 -2.455323  0.703363
   scf:    3    -4098.648077    -4098.639603    -4098.697742  0.008343 -2.454655  0.024799
   scf:    4    -4098.639715    -4098.639669    -4098.697809  0.000280 -2.455258  0.010975
   scf:    5    -4098.639698    -4098.639685    -4098.697824  0.000178 -2.455918  0.005641
   scf:    6    -4098.639691    -4098.639689    -4098.697828  0.000170 -2.456456  0.001468
   scf:    7    -4098.639690    -4098.639690    -4098.697828  0.000053 -2.456466  0.000691

SCF Convergence by DM+H criterion
max |DM_out - DM_in|         :     0.0000530207
max |H_out - H_in|      (eV) :     0.0006914047
SCF cycle converged after 7 iterations

Using DM_out to compute the final energy and forces
No. of atoms with KB's overlaping orbs in proc 0. Max # of overlaps:      37     317

siesta: E_KS(eV) =            -4098.6397

siesta: Atomic forces (eV/Ang):
----------------------------------------
   Tot    0.000567    0.006508   -0.001011
----------------------------------------
   Max    0.573373
   Res    0.110041    sqrt( Sum f_i^2 / 3N )
----------------------------------------
   Max    0.573373    constrained

Stress-tensor-Voigt (kbar):       -1.51       -1.58       -0.19       -0.00       -0.00       -0.02
(Free)E + p*V (eV/cell)    -4093.2517
Target enthalpy (eV/cell)    -4098.6978

                     ====================================
                        Begin Broyden opt. move =      7
                     ====================================

outcoor: Atomic coordinates (Ang):                          
    9.51842506    9.79110109   11.76198958   1       1  Li.gga
   10.78445622   10.50856409   10.03548836   2       2  C.gga
   10.78461528    9.06857625   10.03850384   2       3  C.gga
    9.53798247   11.22992078   10.03789235   2       4  C.gga
   12.03208862   11.22756474   10.01968016   2       5  C.gga
    9.53822255    8.34632495   10.04149612   2       6  C.gga
    8.28778995   10.51001124   10.04144119   2       7  C.gga
   12.03222000    8.34904951   10.02176345   2       8  C.gga
    9.54014794   12.67344796   10.03292421   2       9  C.gga
   13.25070115   10.48285076   10.00298672   2      10  C.gga
   12.00123761   12.65510243   10.00492075   2      11  C.gga
   13.25114768    9.09461060   10.00267144   2      12  C.gga
    8.28711803    9.06649010   10.04342822   2      13  C.gga
   10.79832612   13.35225625   10.00928995   2      14  C.gga
    9.54037152    6.90228627   10.03914863   2      15  C.gga
    7.03408702   11.23395768   10.04048036   2      16  C.gga
   12.00293646    6.92107718   10.00564871   2      17  C.gga
    8.28516375   13.36226042   10.01067289   2      18  C.gga
    7.03385916    8.34309469   10.04335146   2      19  C.gga
   10.79878526    6.22323114   10.01207274   2      20  C.gga
    7.07437182   12.66836803   10.01112335   2      21  C.gga
    8.28495913    6.21373888   10.01338104   2      22  C.gga
    5.80897475   10.48808750   10.01185809   2      23  C.gga
    7.07308005    6.90815543   10.01261392   2      24  C.gga
    5.80851436    9.09004555   10.01229798   2      25  C.gga
   14.19665562   11.05120043    9.99396690   3      26  H.gga
   12.97150935   13.18436996    9.99381706   3      27  H.gga
   14.19802343    8.52825742    9.99327646   3      28  H.gga
   10.79083836   14.45794345    9.99131753   3      29  H.gga
   12.97296056    6.39212505    9.99295013   3      30  H.gga
    8.31453536   14.46824784    9.98947019   3      31  H.gga
   10.79247035    5.11739812    9.99012993   3      32  H.gga
    6.11485912   13.21953544    9.98520878   3      33  H.gga
    8.31258206    5.10741098    9.98748542   3      34  H.gga
    4.85614963   11.05621012    9.98667480   3      35  H.gga
    6.11343018    6.35809352    9.98395102   3      36  H.gga
    4.85532694    8.52338700    9.98586332   3      37  H.gga

outcell: Unit cell vectors (Ang):
       20.000000    0.000000    0.000000
        0.000000   20.000000    0.000000
        0.000000    0.000000   20.000000

outcell: Cell vector modules (Ang)   :   20.000000   20.000000   20.000000
outcell: Cell angles (23,13,12) (deg):     90.0000     90.0000     90.0000
outcell: Cell volume (Ang**3)        :   8000.0000
<dSpData1D:S at geom step 7
  <sparsity:sparsity for geom step 7
    nrows_g=377 nrows=377 sparsity=.9330 nnzs=132613, refcount: 7>
  <dData1D:(new from dSpData1D) n=132613, refcount: 1>
refcount: 1>
new_DM -- step:     8
Re-using DM from previous geometries...
Number of DMs in history: 1
 DM extrapolation coefficients: 
1   1.00000
New DM after history re-use:
<dSpData2D:SpM extrapolated using coords
  <sparsity:sparsity for geom step 7
    nrows_g=377 nrows=377 sparsity=.9330 nnzs=132613, refcount: 8>
  <dData2D:(temp array for extrapolation) n=132613 m=1, refcount: 1>
refcount: 1>
No. of atoms with KB's overlaping orbs in proc 0. Max # of overlaps:      37     317
New grid distribution:   1
           1       1:  108    1:  108    1:  108

InitMesh: MESH =   216 x   216 x   216 =    10077696
InitMesh: (bp) =   108 x   108 x   108 =     1259712
InitMesh: Mesh cutoff (required, used) =   300.000   322.366 Ry
ExtMesh (bp) on 0 =   232 x   232 x   232 =    12487168
PhiOnMesh: Number of (b)points on node 0 =              1259712
PhiOnMesh: nlist on node 0 =              9017389

        iscf     Eharris(eV)        E_KS(eV)     FreeEng(eV)     dDmax    Ef(eV) dHmax(eV)
   scf:    1    -4099.246213    -4098.690525    -4098.748637  0.017396 -2.446629  0.270940
   scf:    2    -4098.482066    -4098.629089    -4098.686370  0.022705 -2.465611  0.850038
   scf:    3    -4098.706566    -4098.695974    -4098.754121  0.019448 -2.452248  0.031905
   scf:    4    -4098.696135    -4098.696072    -4098.754220  0.000675 -2.453927  0.009686
   scf:    5    -4098.696109    -4098.696093    -4098.754241  0.000288 -2.455255  0.005255
   scf:    6    -4098.696099    -4098.696098    -4098.754245  0.000294 -2.455960  0.001746
   scf:    7    -4098.696098    -4098.696099    -4098.754246  0.000124 -2.455939  0.001041
   scf:    8    -4098.696099    -4098.696099    -4098.754246  0.000044 -2.455956  0.000510

SCF Convergence by DM+H criterion
max |DM_out - DM_in|         :     0.0000444883
max |H_out - H_in|      (eV) :     0.0005102225
SCF cycle converged after 8 iterations

Using DM_out to compute the final energy and forces
No. of atoms with KB's overlaping orbs in proc 0. Max # of overlaps:      37     317

siesta: E_KS(eV) =            -4098.6961

siesta: Atomic forces (eV/Ang):
----------------------------------------
   Tot   -0.000845   -0.001001   -0.001825
----------------------------------------
   Max    0.313706
   Res    0.078455    sqrt( Sum f_i^2 / 3N )
----------------------------------------
   Max    0.313706    constrained

Stress-tensor-Voigt (kbar):       -0.90       -0.92       -0.10       -0.00        0.00       -0.01
(Free)E + p*V (eV/cell)    -4095.5466
Target enthalpy (eV/cell)    -4098.7542

                     ====================================
                        Begin Broyden opt. move =      8
                     ====================================

outcoor: Atomic coordinates (Ang):                          
    9.52709829    9.79188801   11.80702738   1       1  Li.gga
   10.78735983   10.51061697   10.03000243   2       2  C.gga
   10.78744450    9.06631822   10.03167682   2       3  C.gga
    9.53666216   11.23377460   10.02981080   2       4  C.gga
   12.03910149   11.23262306   10.02073365   2       5  C.gga
    9.53664411    8.34270844   10.03277057   2       6  C.gga
    8.28307319   10.51194966   10.03018765   2       7  C.gga
   12.03977072    8.34387658   10.02297913   2       8  C.gga
    9.53861089   12.68106928   10.02984709   2       9  C.gga
   13.26024267   10.48623557   10.00478329   2      10  C.gga
   12.00665496   12.66196605   10.00679358   2      11  C.gga
   13.26029299    9.09112167   10.00498772   2      12  C.gga
    8.28320686    9.06480685   10.03146431   2      13  C.gga
   10.79914431   13.36329751   10.01229534   2      14  C.gga
    9.53887702    6.89483353   10.03473062   2      15  C.gga
    7.02702197   11.23807070   10.03523638   2      16  C.gga
   12.00693828    6.91418843   10.00800712   2      17  C.gga
    8.28135367   13.36799268   10.01325616   2      18  C.gga
    7.02646536    8.33869517   10.03755714   2      19  C.gga
   10.80024347    6.21253218   10.01539003   2      20  C.gga
    7.06906220   12.67296480   10.01532127   2      21  C.gga
    8.28065774    6.20808022   10.01632810   2      22  C.gga
    5.80262926   10.48789042   10.01589052   2      23  C.gga
    7.06872134    6.90370944   10.01715169   2      24  C.gga
    5.80257170    9.08984730   10.01670923   2      25  C.gga
   14.20859793   11.05409396    9.99268085   3      26  H.gga
   12.97685255   13.19314592    9.99220127   3      27  H.gga
   14.20991063    8.52485869    9.99188589   3      28  H.gga
   10.79291309   14.46869703    9.99066587   3      29  H.gga
   12.97797424    6.38337044    9.99106927   3      30  H.gga
    8.30794275   14.47597810    9.98829773   3      31  H.gga
   10.79452468    5.10696883    9.98966210   3      32  H.gga
    6.10870131   13.22585394    9.98429408   3      33  H.gga
    8.30600872    5.09996194    9.98646393   3      34  H.gga
    4.84977432   11.05446984    9.98539841   3      35  H.gga
    6.10733446    6.35142653    9.98293256   3      36  H.gga
    4.84869073    8.52472491    9.98467585   3      37  H.gga

outcell: Unit cell vectors (Ang):
       20.000000    0.000000    0.000000
        0.000000   20.000000    0.000000
        0.000000    0.000000   20.000000

outcell: Cell vector modules (Ang)   :   20.000000   20.000000   20.000000
outcell: Cell angles (23,13,12) (deg):     90.0000     90.0000     90.0000
outcell: Cell volume (Ang**3)        :   8000.0000
<dSpData1D:S at geom step 8
  <sparsity:sparsity for geom step 8
    nrows_g=377 nrows=377 sparsity=.9330 nnzs=132613, refcount: 7>
  <dData1D:(new from dSpData1D) n=132613, refcount: 1>
refcount: 1>
new_DM -- step:     9
Re-using DM from previous geometries...
Number of DMs in history: 1
 DM extrapolation coefficients: 
1   1.00000
New DM after history re-use:
<dSpData2D:SpM extrapolated using coords
  <sparsity:sparsity for geom step 8
    nrows_g=377 nrows=377 sparsity=.9330 nnzs=132613, refcount: 8>
  <dData2D:(temp array for extrapolation) n=132613 m=1, refcount: 1>
refcount: 1>
No. of atoms with KB's overlaping orbs in proc 0. Max # of overlaps:      37     317
New grid distribution:   1
           1       1:  108    1:  108    1:  108

InitMesh: MESH =   216 x   216 x   216 =    10077696
InitMesh: (bp) =   108 x   108 x   108 =     1259712
InitMesh: Mesh cutoff (required, used) =   300.000   322.366 Ry
ExtMesh (bp) on 0 =   232 x   232 x   232 =    12487168
PhiOnMesh: Number of (b)points on node 0 =              1259712
PhiOnMesh: nlist on node 0 =              9016683

        iscf     Eharris(eV)        E_KS(eV)     FreeEng(eV)     dDmax    Ef(eV) dHmax(eV)
   scf:    1    -4099.246294    -4098.712319    -4098.770424  0.016843 -2.446307  0.391597
   scf:    2    -4097.915688    -4098.470985    -4098.528947  0.026374 -2.481770  1.531890
   scf:    3    -4098.770762    -4098.726321    -4098.784449  0.022710 -2.453168  0.029065
   scf:    4    -4098.726445    -4098.726396    -4098.784531  0.000556 -2.454984  0.010241
   scf:    5    -4098.726445    -4098.726424    -4098.784555  0.000386 -2.456470  0.005101
   scf:    6    -4098.726420    -4098.726424    -4098.784560  0.000318 -2.457132  0.002654
   scf:    7    -4098.726430    -4098.726428    -4098.784561  0.000155 -2.457137  0.001228
   scf:    8    -4098.726427    -4098.726427    -4098.784561  0.000053 -2.457167  0.000781

SCF Convergence by DM+H criterion
max |DM_out - DM_in|         :     0.0000534663
max |H_out - H_in|      (eV) :     0.0007807563
SCF cycle converged after 8 iterations

Using DM_out to compute the final energy and forces
No. of atoms with KB's overlaping orbs in proc 0. Max # of overlaps:      37     317

siesta: E_KS(eV) =            -4098.7264

siesta: Atomic forces (eV/Ang):
----------------------------------------
   Tot   -0.003867   -0.005895   -0.002479
----------------------------------------
   Max    0.135534
   Res    0.045473    sqrt( Sum f_i^2 / 3N )
----------------------------------------
   Max    0.135534    constrained

Stress-tensor-Voigt (kbar):       -0.27       -0.28       -0.03       -0.00        0.00       -0.00
(Free)E + p*V (eV/cell)    -4097.8276
Target enthalpy (eV/cell)    -4098.7846

                     ====================================
                        Begin Broyden opt. move =      9
                     ====================================

outcoor: Atomic coordinates (Ang):                          
    9.52802424    9.79184916   11.81389496   1       1  Li.gga
   10.78594314   10.51036989   10.02806307   2       2  C.gga
   10.78624916    9.06585086   10.02946841   2       3  C.gga
    9.53419567   11.23421561   10.02907914   2       4  C.gga
   12.04031203   11.23269941   10.02057752   2       5  C.gga
    9.53440732    8.34218246   10.03234682   2       6  C.gga
    8.28009605   10.51214652   10.02996405   2       7  C.gga
   12.04056427    8.34409418   10.02253852   2       8  C.gga
    9.53882216   12.68213393   10.02780570   2       9  C.gga
   13.26215756   10.48589859   10.00584632   2      10  C.gga
   12.00675653   12.66409736   10.00798749   2      11  C.gga
   13.26263337    9.09137698   10.00625155   2      12  C.gga
    8.27994211    9.06435257   10.03137414   2      13  C.gga
   10.80015411   13.36426281   10.01276579   2      14  C.gga
    9.53875446    6.89341652   10.03214988   2      15  C.gga
    7.02617101   11.23937053   10.03185968   2      16  C.gga
   12.00741176    6.91217555   10.00945020   2      17  C.gga
    8.28104793   13.36855665   10.01389743   2      18  C.gga
    7.02603337    8.33762198   10.03385453   2      19  C.gga
   10.80071298    6.21178868   10.01566379   2      20  C.gga
    7.06897225   12.67323461   10.01585979   2      21  C.gga
    8.28074708    6.20782257   10.01679506   2      22  C.gga
    5.80324200   10.48714777   10.01658910   2      23  C.gga
    7.06833309    6.90335944   10.01772153   2      24  C.gga
    5.80282208    9.09052463   10.01735173   2      25  C.gga
   14.21376700   11.05353243    9.99219952   3      26  H.gga
   12.97745152   13.19809156    9.99164588   3      27  H.gga
   14.21479161    8.52522330    9.99146767   3      28  H.gga
   10.79450574   14.47209947    9.99101001   3      29  H.gga
   12.97813122    6.37858847    9.99049519   3      30  H.gga
    8.30353816   14.47637781    9.98838468   3      31  H.gga
   10.79602635    5.10380447    9.99022551   3      32  H.gga
    6.10886778   13.22690542    9.98496336   3      33  H.gga
    8.30174336    5.09977821    9.98680337   3      34  H.gga
    4.84928452   11.05170072    9.98581232   3      35  H.gga
    6.10801479    6.35050779    9.98368209   3      36  H.gga
    4.84834686    8.52729783    9.98524248   3      37  H.gga

outcell: Unit cell vectors (Ang):
       20.000000    0.000000    0.000000
        0.000000   20.000000    0.000000
        0.000000    0.000000   20.000000

outcell: Cell vector modules (Ang)   :   20.000000   20.000000   20.000000
outcell: Cell angles (23,13,12) (deg):     90.0000     90.0000     90.0000
outcell: Cell volume (Ang**3)        :   8000.0000
<dSpData1D:S at geom step 9
  <sparsity:sparsity for geom step 9
    nrows_g=377 nrows=377 sparsity=.9304 nnzs=132237, refcount: 7>
  <dData1D:(new from dSpData1D) n=132237, refcount: 1>
refcount: 1>
new_DM -- step:    10
Re-using DM from previous geometries...
Number of DMs in history: 1
 DM extrapolation coefficients: 
1   1.00000
New DM after history re-use:
<dSpData2D:SpM extrapolated using coords
  <sparsity:sparsity for geom step 9
    nrows_g=377 nrows=377 sparsity=.9304 nnzs=132237, refcount: 8>
  <dData2D:(temp array for extrapolation) n=132237 m=1, refcount: 1>
refcount: 1>
No. of atoms with KB's overlaping orbs in proc 0. Max # of overlaps:      37     313
[...]
    nrows_g=377 nrows=377 sparsity=.9086 nnzs=129141, refcount: 8>
  <dData2D:(temp array for extrapolation) n=129141 m=1, refcount: 1>
refcount: 1>
No. of atoms with KB's overlaping orbs in proc 0. Max # of overlaps:      37     277
New grid distribution:   1
           1       1:  108    1:  108    1:  108

InitMesh: MESH =   216 x   216 x   216 =    10077696
InitMesh: (bp) =   108 x   108 x   108 =     1259712
InitMesh: Mesh cutoff (required, used) =   300.000   322.366 Ry
ExtMesh (bp) on 0 =   232 x   232 x   232 =    12487168
PhiOnMesh: Number of (b)points on node 0 =              1259712
PhiOnMesh: nlist on node 0 =              9015909

        iscf     Eharris(eV)        E_KS(eV)     FreeEng(eV)     dDmax    Ef(eV) dHmax(eV)
   scf:    1    -4098.743184    -4098.745632    -4098.803779  0.011398 -2.453112  0.006044
   scf:    2    -4098.745399    -4098.745562    -4098.803710  0.000438 -2.452887  0.026613
   scf:    3    -4098.745651    -4098.745637    -4098.803784  0.000361 -2.453034  0.000332
   scf:    4    -4098.745637    -4098.745637    -4098.803784  0.000004 -2.453017  0.000156

SCF Convergence by DM+H criterion
max |DM_out - DM_in|         :     0.0000036671
max |H_out - H_in|      (eV) :     0.0001557618
SCF cycle converged after 4 iterations

Using DM_out to compute the final energy and forces
No. of atoms with KB's overlaping orbs in proc 0. Max # of overlaps:      37     277

siesta: E_KS(eV) =            -4098.7456

siesta: Atomic forces (eV/Ang):
----------------------------------------
   Tot   -0.001548    0.000810   -0.002691
----------------------------------------
   Max    0.010479
   Res    0.003432    sqrt( Sum f_i^2 / 3N )
----------------------------------------
   Max    0.010479    constrained

Stress-tensor-Voigt (kbar):        0.01        0.01        0.01       -0.00       -0.00       -0.00
(Free)E + p*V (eV/cell)    -4098.8422
Target enthalpy (eV/cell)    -4098.8038

                     ====================================
                        Begin Broyden opt. move =     27
                     ====================================

outcoor: Atomic coordinates (Ang):                          
    9.53635986    9.78975836   11.82132827   1       1  Li.gga
   10.79125880   10.51250507   10.01769282   2       2  C.gga
   10.79124018    9.06434369   10.01818736   2       3  C.gga
    9.53719232   11.23664835   10.01809661   2       4  C.gga
   12.04731040   11.23752358   10.01833623   2       5  C.gga
    9.53713459    8.34020683   10.01914754   2       6  C.gga
    8.28305350   10.51261240   10.01851145   2       7  C.gga
   12.04726717    8.33922998   10.01894568   2       8  C.gga
    9.53735997   12.68700379   10.01932490   2       9  C.gga
   13.26926700   10.48653633   10.01004483   2      10  C.gga
   12.00788937   12.67142600   10.01110372   2      11  C.gga
   13.26926568    9.09047127   10.01025981   2      12  C.gga
    8.28300123    9.06440264   10.01902887   2      13  C.gga
   10.79906291   13.36950724   10.01167276   2      14  C.gga
    9.53721151    6.88970565   10.02074909   2      15  C.gga
    7.02706825   11.23782251   10.01946998   2      16  C.gga
   12.00774148    6.90518598   10.01202810   2      17  C.gga
    8.27578991   13.36969196   10.01180866   2      18  C.gga
    7.02696622    8.33922084   10.02010455   2      19  C.gga
   10.79887958    6.20709309   10.01297833   2      20  C.gga
    7.06683791   12.67178763   10.01163735   2      21  C.gga
    8.27560169    6.20703843   10.01305633   2      22  C.gga
    5.80506188   10.48677602   10.01205816   2      23  C.gga
    7.06670502    6.90511666   10.01252641   2      24  C.gga
    5.80501151    9.09062038   10.01228927   2      25  C.gga
   14.22997137   11.03885079    9.99669273   3      26  H.gga
   12.96670380   13.22715442    9.99785250   3      27  H.gga
   14.22998913    8.53817950    9.99710449   3      28  H.gga
   10.80149713   14.47767800    9.99988717   3      29  H.gga
   12.96657779    6.34953546    9.99843015   3      30  H.gga
    8.27371255   14.47789562    9.99876869   3      31  H.gga
   10.80110853    5.09887286   10.00122737   3      32  H.gga
    6.10818592   13.22782234    9.99911235   3      33  H.gga
    8.27353376    5.09880201    9.99990827   3      34  H.gga
    4.84434952   11.03912962    9.99918117   3      35  H.gga
    6.10794616    6.34931777    9.99955420   3      36  H.gga
    4.84423396    8.53834203    9.99968100   3      37  H.gga

outcell: Unit cell vectors (Ang):
       20.000000    0.000000    0.000000
        0.000000   20.000000    0.000000
        0.000000    0.000000   20.000000

outcell: Cell vector modules (Ang)   :   20.000000   20.000000   20.000000
outcell: Cell angles (23,13,12) (deg):     90.0000     90.0000     90.0000
outcell: Cell volume (Ang**3)        :   8000.0000
<dSpData1D:S at geom step 27
  <sparsity:sparsity for geom step 27
    nrows_g=377 nrows=377 sparsity=.9119 nnzs=129605, refcount: 7>
  <dData1D:(new from dSpData1D) n=129605, refcount: 1>
refcount: 1>
new_DM -- step:    28
Re-using DM from previous geometries...
Number of DMs in history: 1
 DM extrapolation coefficients: 
1   1.00000
New DM after history re-use:
<dSpData2D:SpM extrapolated using coords
  <sparsity:sparsity for geom step 27
    nrows_g=377 nrows=377 sparsity=.9119 nnzs=129605, refcount: 8>
  <dData2D:(temp array for extrapolation) n=129605 m=1, refcount: 1>
refcount: 1>
No. of atoms with KB's overlaping orbs in proc 0. Max # of overlaps:      37     285
New grid distribution:   1
           1       1:  108    1:  108    1:  108

InitMesh: MESH =   216 x   216 x   216 =    10077696
InitMesh: (bp) =   108 x   108 x   108 =     1259712
InitMesh: Mesh cutoff (required, used) =   300.000   322.366 Ry
ExtMesh (bp) on 0 =   232 x   232 x   232 =    12487168
PhiOnMesh: Number of (b)points on node 0 =              1259712
PhiOnMesh: nlist on node 0 =              9016021

        iscf     Eharris(eV)        E_KS(eV)     FreeEng(eV)     dDmax    Ef(eV) dHmax(eV)
   scf:    1    -4098.742185    -4098.745783    -4098.803930  0.011406 -2.453055  0.006972
   scf:    2    -4098.745421    -4098.745674    -4098.803821  0.000501 -2.453112  0.032000
   scf:    3    -4098.745811    -4098.745790    -4098.803937  0.000409 -2.453070  0.000450
   scf:    4    -4098.745790    -4098.745790    -4098.803937  0.000005 -2.453072  0.000212

SCF Convergence by DM+H criterion
max |DM_out - DM_in|         :     0.0000048703
max |H_out - H_in|      (eV) :     0.0002115673
SCF cycle converged after 4 iterations

Using DM_out to compute the final energy and forces
No. of atoms with KB's overlaping orbs in proc 0. Max # of overlaps:      37     285

siesta: E_KS(eV) =            -4098.7458

siesta: Atomic forces (eV/Ang):
----------------------------------------
   Tot   -0.002304    0.000072   -0.002676
----------------------------------------
   Max    0.010142
   Res    0.003268    sqrt( Sum f_i^2 / 3N )
----------------------------------------
   Max    0.010142    constrained

Stress-tensor-Voigt (kbar):        0.00        0.01        0.01       -0.00       -0.00       -0.00
(Free)E + p*V (eV/cell)    -4098.8298
Target enthalpy (eV/cell)    -4098.8039

                     ====================================
                        Begin Broyden opt. move =     28
                     ====================================

outcoor: Atomic coordinates (Ang):                          
    9.53675545    9.78957093   11.81997317   1       1  Li.gga
   10.79137319   10.51253067   10.01654360   2       2  C.gga
   10.79137193    9.06435809   10.01698394   2       3  C.gga
    9.53729715   11.23664439   10.01689688   2       4  C.gga
   12.04738405   11.23761996   10.01800261   2       5  C.gga
    9.53722392    8.34025159   10.01782596   2       6  C.gga
    8.28318322   10.51260241   10.01724742   2       7  C.gga
   12.04733408    8.33916409   10.01856036   2       8  C.gga
    9.53727377   12.68697132   10.01885455   2       9  C.gga
   13.26930362   10.48656011   10.01028570   2      10  C.gga
   12.00782946   12.67156044   10.01126973   2      11  C.gga
   13.26928369    9.09044460   10.01050296   2      12  C.gga
    8.28312864    9.06443015   10.01770095   2      13  C.gga
   10.79894230   13.36952579   10.01185810   2      14  C.gga
    9.53713366    6.88977412   10.02014617   2      15  C.gga
    7.02722506   11.23771452   10.01887222   2      16  C.gga
   12.00767886    6.90505539   10.01215981   2      17  C.gga
    8.27567359   13.36964962   10.01184252   2      18  C.gga
    7.02715558    8.33935762   10.01945297   2      19  C.gga
   10.79873013    6.20710275   10.01310772   2      20  C.gga
    7.06679904   12.67161972   10.01172787   2      21  C.gga
    8.27551131    6.20711761   10.01303858   2      22  C.gga
    5.80517439   10.48675285   10.01201405   2      23  C.gga
    7.06665365    6.90530330   10.01257743   2      24  C.gga
    5.80511981    9.09063852   10.01225399   2      25  C.gga
   14.23007201   11.03872769    9.99739144   3      26  H.gga
   12.96651345   13.22752905    9.99868557   3      27  H.gga
   14.23007220    8.53828320    9.99782414   3      28  H.gga
   10.80128690   14.47768483   10.00052081   3      29  H.gga
   12.96636148    6.34917525    9.99937480   3      30  H.gga
    8.27340739   14.47782821    9.99966474   3      31  H.gga
   10.80083926    5.09888376   10.00194007   3      32  H.gga
    6.10804631   13.22744806   10.00002318   3      33  H.gga
    8.27327470    5.09888613   10.00091500   3      34  H.gga
    4.84453895   11.03918903   10.00015243   3      35  H.gga
    6.10782800    6.34969788   10.00057521   3      36  H.gga
    4.84444056    8.53828395   10.00065459   3      37  H.gga

outcell: Unit cell vectors (Ang):
       20.000000    0.000000    0.000000
        0.000000   20.000000    0.000000
        0.000000    0.000000   20.000000

outcell: Cell vector modules (Ang)   :   20.000000   20.000000   20.000000
outcell: Cell angles (23,13,12) (deg):     90.0000     90.0000     90.0000
outcell: Cell volume (Ang**3)        :   8000.0000
<dSpData1D:S at geom step 28
  <sparsity:sparsity for geom step 28
    nrows_g=377 nrows=377 sparsity=.9137 nnzs=129869, refcount: 7>
  <dData1D:(new from dSpData1D) n=129869, refcount: 1>
refcount: 1>
new_DM -- step:    29
Re-using DM from previous geometries...
Number of DMs in history: 1
 DM extrapolation coefficients: 
1   1.00000
New DM after history re-use:
<dSpData2D:SpM extrapolated using coords
  <sparsity:sparsity for geom step 28
    nrows_g=377 nrows=377 sparsity=.9137 nnzs=129869, refcount: 8>
  <dData2D:(temp array for extrapolation) n=129869 m=1, refcount: 1>
refcount: 1>
No. of atoms with KB's overlaping orbs in proc 0. Max # of overlaps:      37     289
New grid distribution:   1
           1       1:  108    1:  108    1:  108

InitMesh: MESH =   216 x   216 x   216 =    10077696
InitMesh: (bp) =   108 x   108 x   108 =     1259712
InitMesh: Mesh cutoff (required, used) =   300.000   322.366 Ry
ExtMesh (bp) on 0 =   232 x   232 x   232 =    12487168
PhiOnMesh: Number of (b)points on node 0 =              1259712
PhiOnMesh: nlist on node 0 =              9016010

        iscf     Eharris(eV)        E_KS(eV)     FreeEng(eV)     dDmax    Ef(eV) dHmax(eV)
   scf:    1    -4098.742199    -4098.745934    -4098.804081  0.011406 -2.453256  0.007429
   scf:    2    -4098.745549    -4098.745818    -4098.803965  0.000456 -2.452895  0.032749
   scf:    3    -4098.745964    -4098.745942    -4098.804089  0.000371 -2.453135  0.000444
   scf:    4    -4098.745942    -4098.745942    -4098.804089  0.000005 -2.453112  0.000207

SCF Convergence by DM+H criterion
max |DM_out - DM_in|         :     0.0000048021
max |H_out - H_in|      (eV) :     0.0002072292
SCF cycle converged after 4 iterations

Using DM_out to compute the final energy and forces
No. of atoms with KB's overlaping orbs in proc 0. Max # of overlaps:      37     289

siesta: E_KS(eV) =            -4098.7459

siesta: Atomic forces (eV/Ang):
----------------------------------------
   Tot   -0.001449    0.000482   -0.002890
----------------------------------------
   Max    0.009931
   Res    0.003125    sqrt( Sum f_i^2 / 3N )
----------------------------------------
   Max    0.009931    constrained

Stress-tensor-Voigt (kbar):       -0.00        0.00        0.01       -0.00       -0.00       -0.00
(Free)E + p*V (eV/cell)    -4098.8199
Target enthalpy (eV/cell)    -4098.8041

outcoor: Relaxed atomic coordinates (Ang):                  
    9.53675545    9.78957093   11.81997317   1       1  Li.gga
   10.79137319   10.51253067   10.01654360   2       2  C.gga
   10.79137193    9.06435809   10.01698394   2       3  C.gga
    9.53729715   11.23664439   10.01689688   2       4  C.gga
   12.04738405   11.23761996   10.01800261   2       5  C.gga
    9.53722392    8.34025159   10.01782596   2       6  C.gga
    8.28318322   10.51260241   10.01724742   2       7  C.gga
   12.04733408    8.33916409   10.01856036   2       8  C.gga
    9.53727377   12.68697132   10.01885455   2       9  C.gga
   13.26930362   10.48656011   10.01028570   2      10  C.gga
   12.00782946   12.67156044   10.01126973   2      11  C.gga
   13.26928369    9.09044460   10.01050296   2      12  C.gga
    8.28312864    9.06443015   10.01770095   2      13  C.gga
   10.79894230   13.36952579   10.01185810   2      14  C.gga
    9.53713366    6.88977412   10.02014617   2      15  C.gga
    7.02722506   11.23771452   10.01887222   2      16  C.gga
   12.00767886    6.90505539   10.01215981   2      17  C.gga
    8.27567359   13.36964962   10.01184252   2      18  C.gga
    7.02715558    8.33935762   10.01945297   2      19  C.gga
   10.79873013    6.20710275   10.01310772   2      20  C.gga
    7.06679904   12.67161972   10.01172787   2      21  C.gga
    8.27551131    6.20711761   10.01303858   2      22  C.gga
    5.80517439   10.48675285   10.01201405   2      23  C.gga
    7.06665365    6.90530330   10.01257743   2      24  C.gga
    5.80511981    9.09063852   10.01225399   2      25  C.gga
   14.23007201   11.03872769    9.99739144   3      26  H.gga
   12.96651345   13.22752905    9.99868557   3      27  H.gga
   14.23007220    8.53828320    9.99782414   3      28  H.gga
   10.80128690   14.47768483   10.00052081   3      29  H.gga
   12.96636148    6.34917525    9.99937480   3      30  H.gga
    8.27340739   14.47782821    9.99966474   3      31  H.gga
   10.80083926    5.09888376   10.00194007   3      32  H.gga
    6.10804631   13.22744806   10.00002318   3      33  H.gga
    8.27327470    5.09888613   10.00091500   3      34  H.gga
    4.84453895   11.03918903   10.00015243   3      35  H.gga
    6.10782800    6.34969788   10.00057521   3      36  H.gga
    4.84444056    8.53828395   10.00065459   3      37  H.gga

coxmol: Writing XMOL coordinates into file LiCoronene.xyz                                                      

siesta: Program's energy decomposition (eV):
siesta: Ebs     =     -1338.795096
siesta: Eions   =      6368.904408
siesta: Ena     =      1433.546020
siesta: Ekin    =      2741.195643
siesta: Enl     =      -316.701674
siesta: Eso     =         0.000000
siesta: Eldau   =         0.000000
siesta: DEna    =      -142.916919
siesta: DUscf   =        16.021721
siesta: DUext   =         0.000000
siesta: Exc     =     -1460.986326
siesta: eta*DQ  =         0.000000
siesta: Emadel  =         0.000000
siesta: Emeta   =         0.000000
siesta: Emolmec =         0.000000
siesta: Ekinion =         0.000000
siesta: Eharris =     -4098.745942
siesta: Etot    =     -4098.745942
siesta: FreeEng =     -4098.804089

siesta: Final energy (eV):
siesta:  Band Struct. =   -1338.795096
siesta:       Kinetic =    2741.195643
siesta:       Hartree =   15093.102591
siesta:       Eldau   =       0.000000
siesta:       Eso     =       0.000000
siesta:    Ext. field =       0.000000
siesta:   Exch.-corr. =   -1460.986326
siesta:  Ion-electron =  -32614.801677
siesta:       Ion-ion =   12142.743827
siesta:       Ekinion =       0.000000
siesta:         Total =   -4098.745942
siesta:         Fermi =      -2.453112

siesta: Stress tensor (static) (eV/Ang**3):
siesta:    -0.000001   -0.000000   -0.000000
siesta:    -0.000000    0.000002   -0.000000
siesta:    -0.000000   -0.000000    0.000004

siesta: Cell volume =       8000.000000 Ang**3

siesta: Pressure (static):
siesta:                Solid            Molecule  Units
siesta:          -0.00000002         -0.00000002  Ry/Bohr**3
siesta:          -0.00000198         -0.00000162  eV/Ang**3
siesta:          -0.00316988         -0.00259097  kBar
(Free)E+ p_basis*V_orbitals  =       -4074.674571
(Free)Eharris+ p_basis*V_orbitals  =       -4074.674571

siesta: Electric dipole (a.u.)  =   -0.000230    0.001076    1.883583
siesta: Electric dipole (Debye) =   -0.000584    0.002736    4.787593

timer: Elapsed wall time (sec) =    2157.778
timer: CPU execution times (sec):

Routine            Calls   Time/call    Tot.time        %
siesta                 1    2147.751    2147.751   100.00
Setup                  1       0.308       0.308     0.01
bands                  1       0.000       0.000     0.00
KSV_init               1       0.000       0.000     0.00
IterGeom              29      74.048    2147.394    99.98
state_init            29       0.067       1.952     0.09
hsparse               29       0.012       0.354     0.02
overlap               29       0.047       1.370     0.06
Setup_H0              29      10.394     301.427    14.03
naefs                 58       0.000       0.017     0.00
MolMec                58       0.000       0.000     0.00
kinefsm               58       0.043       2.514     0.12
nlefsm                58       0.257      14.879     0.69
DHSCF_Init            29      10.187     295.410    13.75
DHSCF1                29       0.190       5.506     0.26
INITMESH              29       0.000       0.000     0.00
DHSCF2                29       9.997     289.903    13.50
REMESH                29       1.099      31.879     1.48
REORD                919       0.016      14.813     0.69
PHION                 29       6.878     199.470     9.29
COMM_BSC             571       0.017       9.544     0.44
POISON               271       0.749     202.923     9.45
fft                  542       0.300     162.669     7.57
IterSCF              184       7.224    1329.285    61.89
setup_H              213       6.120    1303.542    60.69
DHSCF                242       7.450    1802.916    83.94
DHSCF3               242       6.103    1477.044    68.77
rhoofd               242       1.952     472.490    22.00
CellXC               242       1.998     483.612    22.52
cellXC               242       1.998     483.609    22.52
vmat                 242       1.199     290.089    13.51
compute_dm           184       0.134      24.682     1.15
diagon               184       0.133      24.415     1.14
r-eigvec             184       0.121      22.319     1.04
r-buildHS            184       0.000       0.056     0.00
rdiag                184       0.121      22.262     1.04
rdiag1               184       0.009       1.624     0.08
rdiag2               184       0.021       3.805     0.18
rdiag3               184       0.075      13.769     0.64
rdiag4               184       0.016       3.008     0.14
r-buildD             184       0.011       2.042     0.10
MIXER                155       0.001       0.218     0.01
PostSCF               29      17.737     514.367    23.95
DHSCF4                29      11.237     325.871    15.17
dfscf                 29       9.787     283.817    13.21
overfsm               29       0.037       1.079     0.05
state_analysis        29       0.003       0.077     0.00
siesta_move           29       0.002       0.045     0.00
Analysis               1       0.004       0.004     0.00
optical                1       0.000       0.000     0.00
  
>> End of run:  23-AUG-2019   0:31:59
Job completed
