
                           ***********************       
                           *  WELCOME TO SIESTA  *       
                           ***********************       

reinit: Reading from input.fdf

reinit: -----------------------------------------------------------------------
reinit: System Name: 
reinit: -----------------------------------------------------------------------
reinit: System Label: Phenol
reinit: -----------------------------------------------------------------------
Siesta Version: siesta-4.1--736
Architecture  : unknown
Compiler flags: gfortran -O3 -fPIC -ftree-vectorize -fopenmp
PP flags      : -DFC_HAVE_ABORT
Libraries     : -L/usr/local/opt/openblas/lib -lopenblas -fopenmp
SERIAL version

* Running in serial mode
* Running 4 OpenMP threads.
* Running 4 processes.
* OpenMP version 201511
* OpenMP runtime schedule DYNAMIC, chunks 1
** OpenMP runtime schedule DYNAMIC, chunks 32
>> Start of run:  22-MAR-2019  15:12:39

initatom: Reading input for the pseudopotentials and atomic orbitals ----------
Species number:   1 Atomic number:    6 Label: C.gga
Species number:   2 Atomic number:    1 Label: H.gga
Species number:   3 Atomic number:    8 Label: O.gga

Ground state valence configuration:   2s02  2p02
Reading pseudopotential information in formatted form from C.gga.psf

Valence configuration for pseudopotential generation:
2s( 2.00) rc: 1.54
2p( 2.00) rc: 1.54
3d( 0.00) rc: 1.54
4f( 0.00) rc: 1.54
Ground state valence configuration:   1s01
Reading pseudopotential information in formatted form from H.gga.psf

Valence configuration for pseudopotential generation:
1s( 1.00) rc: 1.31
2p( 0.00) rc: 1.31
3d( 0.00) rc: 0.37
4f( 0.00) rc: 1.31
Ground state valence configuration:   2s02  2p04
Reading pseudopotential information in formatted form from O.gga.psf

Valence configuration for pseudopotential generation:
2s( 2.00) rc: 1.47
2p( 4.00) rc: 1.47
3d( 0.00) rc: 1.47
4f( 0.00) rc: 1.47
For C.gga, standard SIESTA heuristics set lmxkb to 3
 (one more than the basis l, including polarization orbitals).
Use PS.lmax or PS.KBprojectors blocks to override.
For H.gga, standard SIESTA heuristics set lmxkb to 2
 (one more than the basis l, including polarization orbitals).
Use PS.lmax or PS.KBprojectors blocks to override.
For O.gga, standard SIESTA heuristics set lmxkb to 3
 (one more than the basis l, including polarization orbitals).
Use PS.lmax or PS.KBprojectors blocks to override.

<basis_specs>
===============================================================================
C.gga                Z=   6    Mass=  12.010        Charge= 0.17977+309
Lmxo=1 Lmxkb= 3    BasisType=split      Semic=F
L=0  Nsemic=0  Cnfigmx=2
          n=1  nzeta=2  polorb=0
            splnorm:   0.15000    
               vcte:    0.0000    
               rinn:    0.0000    
               qcoe:    0.0000    
               qyuk:    0.0000    
               qwid:   0.10000E-01
                rcs:    0.0000      0.0000    
            lambdas:    1.0000      1.0000    
L=1  Nsemic=0  Cnfigmx=2
          n=1  nzeta=2  polorb=1
            splnorm:   0.15000    
               vcte:    0.0000    
               rinn:    0.0000    
               qcoe:    0.0000    
               qyuk:    0.0000    
               qwid:   0.10000E-01
                rcs:    0.0000      0.0000    
            lambdas:    1.0000      1.0000    
-------------------------------------------------------------------------------
L=0  Nkbl=1  erefs: 0.17977+309
L=1  Nkbl=1  erefs: 0.17977+309
L=2  Nkbl=1  erefs: 0.17977+309
L=3  Nkbl=1  erefs: 0.17977+309
===============================================================================
</basis_specs>

atom: Called for C.gga                 (Z =   6)

read_vps: Pseudopotential generation method:
read_vps: ATM3      Troullier-Martins                       
Total valence charge:    4.00000

read_vps: Pseudopotential includes a core correction:
read_vps: Pseudo-core for xc-correction

xc_check: Exchange-correlation functional:
xc_check: GGA Perdew, Burke & Ernzerhof 1996
V l=0 = -2*Zval/r beyond r=  1.5227
V l=1 = -2*Zval/r beyond r=  1.5227
V l=2 = -2*Zval/r beyond r=  1.5227
V l=3 = -2*Zval/r beyond r=  1.5038
All V_l potentials equal beyond r=  1.5227
This should be close to max(r_c) in ps generation
All pots = -2*Zval/r beyond r=  1.5227

VLOCAL1: 99.0% of the norm of Vloc inside     18.722 Ry
VLOCAL1: 99.9% of the norm of Vloc inside     42.668 Ry
atom: Maximum radius for 4*pi*r*r*local-pseudopot. charge    1.83678
atom: Maximum radius for r*vlocal+2*Zval:    1.58088
GHOST: No ghost state for L =  0
GHOST: No ghost state for L =  1
GHOST: No ghost state for L =  2
GHOST: No ghost state for L =  3

KBgen: Kleinman-Bylander projectors: 
   l= 0   rc=  1.704034   el= -1.009801   Ekb=  5.335044   kbcos=  0.316824
   l= 1   rc=  1.704034   el= -0.388707   Ekb= -3.785862   kbcos= -0.366464
   l= 2   rc=  1.791422   el=  0.001971   Ekb= -0.970471   kbcos= -0.009212
   l= 3   rc=  1.859892   el=  0.003065   Ekb= -0.399525   kbcos= -0.001223

KBgen: Total number of  Kleinman-Bylander projectors:   16
atom: -------------------------------------------------------------------------

atom: SANKEY-TYPE ORBITALS:
atom: Selected multiple-zeta basis: split     

SPLIT: Orbitals with angular momentum L= 0

SPLIT: Basis orbitals for state 2s

SPLIT: PAO cut-off radius determined from an
SPLIT: energy shift=  0.002205 Ry

   izeta = 1
                 lambda =    1.000000
                     rc =    5.382558
                 energy =   -1.007983
                kinetic =    0.829025
    potential(screened) =   -1.837009
       potential(ionic) =   -5.376592

   izeta = 2
                 rmatch =    3.475094
              splitnorm =    0.150000
                 energy =   -0.876935
                kinetic =    1.279964
    potential(screened) =   -2.156899
       potential(ionic) =   -5.943761

SPLIT: Orbitals with angular momentum L= 1

SPLIT: Basis orbitals for state 2p

SPLIT: PAO cut-off radius determined from an
SPLIT: energy shift=  0.002205 Ry

   izeta = 1
                 lambda =    1.000000
                     rc =    6.740804
                 energy =   -0.386704
                kinetic =    2.327316
    potential(screened) =   -2.714020
       potential(ionic) =   -6.100339

   izeta = 2
                 rmatch =    3.792903
              splitnorm =    0.150000
                 energy =   -0.270625
                kinetic =    3.420974
    potential(screened) =   -3.691599
       potential(ionic) =   -7.453004

POLgen: Perturbative polarization orbital with L=  2

POLgen: Polarization orbital for state 2p

   izeta = 1
                     rc =    6.740804
                 energy =    0.975645
                kinetic =    2.058046
    potential(screened) =   -1.082401
       potential(ionic) =   -3.782952
atom: Total number of Sankey-type orbitals: 13

atm_pop: Valence configuration (for local Pseudopot. screening):
 2s( 2.00)                                                            
 2p( 2.00)                                                            
Vna: chval, zval:    4.00000   4.00000

Vna:  Cut-off radius for the neutral-atom potential:   6.740804
comcore: Pseudo-core radius Rcore=  1.791422

atom: _________________________________________________________________________

<basis_specs>
===============================================================================
H.gga                Z=   1    Mass=  1.0100        Charge= 0.17977+309
Lmxo=0 Lmxkb= 2    BasisType=split      Semic=F
L=0  Nsemic=0  Cnfigmx=1
          n=1  nzeta=2  polorb=1
            splnorm:   0.15000    
               vcte:    0.0000    
               rinn:    0.0000    
               qcoe:    0.0000    
               qyuk:    0.0000    
               qwid:   0.10000E-01
                rcs:    0.0000      0.0000    
            lambdas:    1.0000      1.0000    
-------------------------------------------------------------------------------
L=0  Nkbl=1  erefs: 0.17977+309
L=1  Nkbl=1  erefs: 0.17977+309
L=2  Nkbl=1  erefs: 0.17977+309
===============================================================================
</basis_specs>

atom: Called for H.gga                 (Z =   1)

read_vps: Pseudopotential generation method:
read_vps: ATM3      Troullier-Martins                       
Total valence charge:    1.00000

xc_check: Exchange-correlation functional:
xc_check: GGA Perdew, Burke & Ernzerhof 1996
V l=0 = -2*Zval/r beyond r=  1.2977
V l=1 = -2*Zval/r beyond r=  1.2815
V l=2 = -2*Zval/r beyond r=  1.2656
All V_l potentials equal beyond r=  1.2977
This should be close to max(r_c) in ps generation
All pots = -2*Zval/r beyond r=  1.2977

VLOCAL1: 99.0% of the norm of Vloc inside     25.776 Ry
VLOCAL1: 99.9% of the norm of Vloc inside     58.745 Ry
atom: Maximum radius for 4*pi*r*r*local-pseudopot. charge    1.52711
atom: Maximum radius for r*vlocal+2*Zval:    1.28155
GHOST: No ghost state for L =  0
GHOST: No ghost state for L =  1
GHOST: No ghost state for L =  2

KBgen: Kleinman-Bylander projectors: 
   l= 0   rc=  1.434438   el= -0.477200   Ekb= -1.957043   kbcos= -0.361614
   l= 1   rc=  1.508111   el=  0.001076   Ekb= -0.424224   kbcos= -0.025441
   l= 2   rc=  1.527112   el=  0.002010   Ekb= -0.378578   kbcos= -0.002010

KBgen: Total number of  Kleinman-Bylander projectors:    9
atom: -------------------------------------------------------------------------

atom: SANKEY-TYPE ORBITALS:
atom: Selected multiple-zeta basis: split     

SPLIT: Orbitals with angular momentum L= 0

SPLIT: Basis orbitals for state 1s

SPLIT: PAO cut-off radius determined from an
SPLIT: energy shift=  0.002205 Ry

   izeta = 1
                 lambda =    1.000000
                     rc =    6.518340
                 energy =   -0.475328
                kinetic =    0.879188
    potential(screened) =   -1.354517
       potential(ionic) =   -1.873657

   izeta = 2
                 rmatch =    4.103729
              splitnorm =    0.150000
                 energy =   -0.382914
                kinetic =    1.427335
    potential(screened) =   -1.810249
       potential(ionic) =   -2.357086

POLgen: Perturbative polarization orbital with L=  1

POLgen: Polarization orbital for state 1s

   izeta = 1
                     rc =    6.518340
                 energy =    0.536347
                kinetic =    1.136516
    potential(screened) =   -0.600169
       potential(ionic) =   -1.065665
atom: Total number of Sankey-type orbitals:  5

atm_pop: Valence configuration (for local Pseudopot. screening):
 1s( 1.00)                                                            
Vna: chval, zval:    1.00000   1.00000

Vna:  Cut-off radius for the neutral-atom potential:   6.518340

atom: _________________________________________________________________________

<basis_specs>
===============================================================================
O.gga                Z=   8    Mass=  16.000        Charge= 0.17977+309
Lmxo=1 Lmxkb= 3    BasisType=split      Semic=F
L=0  Nsemic=0  Cnfigmx=2
          n=1  nzeta=2  polorb=0
            splnorm:   0.15000    
               vcte:    0.0000    
               rinn:    0.0000    
               qcoe:    0.0000    
               qyuk:    0.0000    
               qwid:   0.10000E-01
                rcs:    0.0000      0.0000    
            lambdas:    1.0000      1.0000    
L=1  Nsemic=0  Cnfigmx=2
          n=1  nzeta=2  polorb=1
            splnorm:   0.15000    
               vcte:    0.0000    
               rinn:    0.0000    
               qcoe:    0.0000    
               qyuk:    0.0000    
               qwid:   0.10000E-01
                rcs:    0.0000      0.0000    
            lambdas:    1.0000      1.0000    
-------------------------------------------------------------------------------
L=0  Nkbl=1  erefs: 0.17977+309
L=1  Nkbl=1  erefs: 0.17977+309
L=2  Nkbl=1  erefs: 0.17977+309
L=3  Nkbl=1  erefs: 0.17977+309
===============================================================================
</basis_specs>

atom: Called for O.gga                 (Z =   8)

read_vps: Pseudopotential generation method:
read_vps: ATM3      Troullier-Martins                       
Total valence charge:    6.00000

read_vps: Pseudopotential includes a core correction:
read_vps: Pseudo-core for xc-correction

xc_check: Exchange-correlation functional:
xc_check: GGA Perdew, Burke & Ernzerhof 1996
V l=0 = -2*Zval/r beyond r=  1.4482
V l=1 = -2*Zval/r beyond r=  1.4482
V l=2 = -2*Zval/r beyond r=  1.4482
V l=3 = -2*Zval/r beyond r=  1.4482
All V_l potentials equal beyond r=  1.4482
This should be close to max(r_c) in ps generation
All pots = -2*Zval/r beyond r=  1.4482

VLOCAL1: 99.0% of the norm of Vloc inside     20.696 Ry
VLOCAL1: 99.9% of the norm of Vloc inside     47.167 Ry
atom: Maximum radius for 4*pi*r*r*local-pseudopot. charge    1.74697
atom: Maximum radius for r*vlocal+2*Zval:    1.52250
GHOST: No ghost state for L =  0
GHOST: No ghost state for L =  1
GHOST: No ghost state for L =  2
GHOST: No ghost state for L =  3

KBgen: Kleinman-Bylander projectors: 
   l= 0   rc=  1.620715   el= -1.757696   Ekb=  4.880948   kbcos=  0.293490
   l= 1   rc=  1.600578   el= -0.664256   Ekb= -6.909822   kbcos= -0.499892
   l= 2   rc=  1.703827   el=  0.002031   Ekb= -1.539219   kbcos= -0.006778
   l= 3   rc=  1.746967   el=  0.003153   Ekb= -0.568983   kbcos= -0.000967

KBgen: Total number of  Kleinman-Bylander projectors:   16
atom: -------------------------------------------------------------------------

atom: SANKEY-TYPE ORBITALS:
atom: Selected multiple-zeta basis: split     

SPLIT: Orbitals with angular momentum L= 0

SPLIT: Basis orbitals for state 2s

SPLIT: PAO cut-off radius determined from an
SPLIT: energy shift=  0.002205 Ry

   izeta = 1
                 lambda =    1.000000
                     rc =    4.139122
                 energy =   -1.755549
                kinetic =    1.529685
    potential(screened) =   -3.285233
       potential(ionic) =  -11.160563

   izeta = 2
                 rmatch =    2.541963
              splitnorm =    0.150000
                 energy =   -1.517776
                kinetic =    2.348222
    potential(screened) =   -3.865999
       potential(ionic) =  -12.356890

SPLIT: Orbitals with angular momentum L= 1

SPLIT: Basis orbitals for state 2p

SPLIT: PAO cut-off radius determined from an
SPLIT: energy shift=  0.002205 Ry

   izeta = 1
                 lambda =    1.000000
                     rc =    5.314825
                 energy =   -0.662390
                kinetic =    4.472446
    potential(screened) =   -5.134836
       potential(ionic) =  -12.694617

   izeta = 2
                 rmatch =    2.705925
              splitnorm =    0.150000
                 energy =   -0.427537
                kinetic =    6.597007
    potential(screened) =   -7.024544
       potential(ionic) =  -15.479186

POLgen: Perturbative polarization orbital with L=  2

POLgen: Polarization orbital for state 2p

   izeta = 1
                     rc =    5.314825
                 energy =    1.979175
                kinetic =    4.015874
    potential(screened) =   -2.036699
       potential(ionic) =   -7.919671
atom: Total number of Sankey-type orbitals: 13

atm_pop: Valence configuration (for local Pseudopot. screening):
 2s( 2.00)                                                            
 2p( 4.00)                                                            
Vna: chval, zval:    6.00000   6.00000

Vna:  Cut-off radius for the neutral-atom potential:   5.314825
comcore: Pseudo-core radius Rcore=  1.377587

atom: _________________________________________________________________________

prinput: Basis input ----------------------------------------------------------

PAO.BasisType split     

%block ChemicalSpeciesLabel
    1    6 C.gga                   # Species index, atomic number, species label
    2    1 H.gga                   # Species index, atomic number, species label
    3    8 O.gga                   # Species index, atomic number, species label
%endblock ChemicalSpeciesLabel

%block PAO.Basis                 # Define Basis set
C.gga                 2                    # Species label, number of l-shells
 n=2   0   2                         # n, l, Nzeta 
   5.383      3.475   
   1.000      1.000   
 n=2   1   2 P   1                   # n, l, Nzeta, Polarization, NzetaPol
   6.741      3.793   
   1.000      1.000   
H.gga                 1                    # Species label, number of l-shells
 n=1   0   2 P   1                   # n, l, Nzeta, Polarization, NzetaPol
   6.518      4.104   
   1.000      1.000   
O.gga                 2                    # Species label, number of l-shells
 n=2   0   2                         # n, l, Nzeta 
   4.139      2.542   
   1.000      1.000   
 n=2   1   2 P   1                   # n, l, Nzeta, Polarization, NzetaPol
   5.315      2.706   
   1.000      1.000   
%endblock PAO.Basis

prinput: ----------------------------------------------------------------------

coor:   Atomic-coordinates input format  =     Cartesian coordinates
coor:                                          (in Angstroms)

siesta: Atomic coordinates (Bohr) and species
siesta:      4.13884   2.11496   0.00000  1        1
siesta:      6.44149   3.41145   0.00000  1        2
siesta:      6.47265   6.05474   0.00000  1        3
siesta:      4.19960   7.40994   0.00000  1        4
siesta:      1.88980   6.10327   0.00000  1        5
siesta:      1.86435   3.46007   0.00000  1        6
siesta:      2.71593  10.95093   0.00000  2        7
siesta:      4.11709   0.06975   0.00000  2        8
siesta:      8.20111   2.36877   0.00000  2        9
siesta:      8.26045   7.04989   0.00000  2       10
siesta:      0.12145   7.13257   0.00000  2       11
siesta:      0.08288   2.45511   0.00000  2       12
siesta:      4.25190   9.95775   0.00000  3       13

siesta: System type = molecule  

initatomlists: Number of atoms, orbitals, and projectors:     13   121   166

coxmol: Writing XMOL coordinates into file Phenol.xyz                                                          

siesta: ******************** Simulation parameters ****************************
siesta:
siesta: The following are some of the parameters of the simulation.
siesta: A complete list of the parameters used, including default values,
siesta: can be found in file out.fdf
siesta:
redata: Spin configuration                          = none
redata: Number of spin components                   = 1
redata: Time-Reversal Symmetry                      = T
redata: Spin-spiral                                 = F
redata: Long output                                 =   F
redata: Number of Atomic Species                    =        3
redata: Charge density info will appear in .RHO file
redata: Write Mulliken Pop.                         = NO
redata: Mesh Cutoff                                 =   300.0000 Ry
redata: Net charge of the system                    =     0.0000 |e|
redata: Min. number of SCF Iter                     =        0
redata: Max. number of SCF Iter                     =     1000
redata: SCF mix quantity                            = Hamiltonian
redata: Mix DM or H after convergence               =   F
redata: Recompute H after scf cycle                 =   F
redata: Mix DM in first SCF step                    =   T
redata: Write Pulay info on disk                    =   F
redata: New DM Mixing Weight                        =     0.2500
redata: New DM Occupancy tolerance                  = 0.000000000001
redata: No kicks to SCF
redata: DM Mixing Weight for Kicks                  =     0.5000
redata: Require Harris convergence for SCF          =   F
redata: Harris energy tolerance for SCF             =     0.000100 eV
redata: Require DM convergence for SCF              =   T
redata: DM tolerance for SCF                        =     0.0001
redata: Require EDM convergence for SCF             =   F
redata: EDM tolerance for SCF                       =     0.001000 eV
redata: Require H convergence for SCF               =   T
redata: Hamiltonian tolerance for SCF               =     0.001000 eV
redata: Require (free) Energy convergence for SCF   =   F
redata: (free) Energy tolerance for SCF             =     0.000100 eV
redata: Using Saved Data (generic)                  =   F
redata: Use continuation files for DM               =   F
redata: Neglect nonoverlap interactions             =   F
redata: Method of Calculation                       = Diagonalization
redata: Divide and Conquer                          =   T
redata: Electronic Temperature                      =   299.9869 K
redata: Fix the spin of the system                  =   F
redata: Dynamics option                             = FIRE coord. optimization
redata: Variable cell                               =   F
redata: Use continuation files for CG               =   F
redata: Max atomic displ per move                   =     0.1058 Ang
redata: Maximum number of CG moves                  =     1000
redata: Force tolerance                             =     0.0100 eV/Ang
mix.SCF: Pulay mixing                            = Pulay
mix.SCF:    Variant                              = stable
mix.SCF:    History steps                        = 2
mix.SCF:    Linear mixing weight                 =     0.250000
mix.SCF:    Mixing weight                        =     0.250000
mix.SCF:    SVD condition                        = 0.1000E-07
redata: ***********************************************************************

%block SCF.Mixers
  Pulay
%endblock SCF.Mixers

%block SCF.Mixer.Pulay
  # Mixing method
  method pulay
  variant stable

  # Mixing options
  weight 0.2500
  weight.linear 0.2500
  history 2
%endblock SCF.Mixer.Pulay

DM_history_depth set to one: no extrapolation allowed by default for geometry relaxation
Size of DM history Fstack: 1
Total number of electrons:    36.000000
Total ionic charge:    36.000000
 Kpoints in:            1 . Kpoints trimmed:            1

siesta: k-grid: Number of k-points =     1
siesta: k-grid: Cutoff (effective) =    10.000 Ang
siesta: k-grid: Supercell and displacements
siesta: k-grid:    1   0   0      0.000
siesta: k-grid:    0   1   0      0.000
siesta: k-grid:    0   0   1      0.000


                     ====================================
                        Begin FIRE opt. move =      0
                     ====================================

outcoor: Atomic coordinates (Ang):                          
    2.19018000    1.11919000    0.00000000   1       1  C.gga
    3.40869000    1.80526000    0.00000000   1       2  C.gga
    3.42518000    3.20403000    0.00000000   1       3  C.gga
    2.22233000    3.92117000    0.00000000   1       4  C.gga
    1.00004000    3.22971000    0.00000000   1       5  C.gga
    0.98657000    1.83099000    0.00000000   1       6  C.gga
    1.43721000    5.79498000    0.00000000   2       7  H.gga
    2.17867000    0.03691000    0.00000000   2       8  H.gga
    4.33984000    1.25350000    0.00000000   2       9  H.gga
    4.37124000    3.73064000    0.00000000   2      10  H.gga
    0.06427000    3.77439000    0.00000000   2      11  H.gga
    0.04386000    1.29919000    0.00000000   2      12  H.gga
    2.25001000    5.26941000    0.00000000   3      13  O.gga

outcell: Unit cell vectors (Ang):
       20.000000    0.000000    0.000000
        0.000000   20.000000    0.000000
        0.000000    0.000000   20.000000

outcell: Cell vector modules (Ang)   :   20.000000   20.000000   20.000000
outcell: Cell angles (23,13,12) (deg):     90.0000     90.0000     90.0000
outcell: Cell volume (Ang**3)        :   8000.0000
<dSpData1D:S at geom step 0
  <sparsity:sparsity for geom step 0
    nrows_g=121 nrows=121 sparsity=.9985 nnzs=14619, refcount: 7>
  <dData1D:(new from dSpData1D) n=14619, refcount: 1>
refcount: 1>
new_DM -- step:     1
Initializing Density Matrix...
DM filled with atomic data:
<dSpData2D:DM initialized from atoms
  <sparsity:sparsity for geom step 0
    nrows_g=121 nrows=121 sparsity=.9985 nnzs=14619, refcount: 8>
  <dData2D:DM n=14619 m=1, refcount: 1>
refcount: 1>

No. of atoms with KB's overlaping orbs in proc 0. Max # of overlaps:      13     118
New grid distribution:   1
           1       1:  108    1:  108    1:  108

InitMesh: MESH =   216 x   216 x   216 =    10077696
InitMesh: (bp) =   108 x   108 x   108 =     1259712
InitMesh: Mesh cutoff (required, used) =   300.000   322.366 Ry
ExtMesh (bp) on 0 =   188 x   188 x   188 =     6644672
PhiOnMesh: Number of (b)points on node 0 =              1259712
PhiOnMesh: nlist on node 0 =              2631478

stepf: Fermi-Dirac step function

siesta: Program's energy decomposition (eV):
siesta: Ebs     =      -344.576689
siesta: Eions   =      2250.705553
siesta: Ena     =       437.721806
siesta: Ekin    =      1102.942223
siesta: Enl     =      -208.796467
siesta: Eso     =         0.000000
siesta: Eldau   =         0.000000
siesta: DEna    =       -89.938200
siesta: DUscf   =        14.261340
siesta: DUext   =         0.000000
siesta: Exc     =      -516.434064
siesta: eta*DQ  =         0.000000
siesta: Emadel  =         0.000000
siesta: Emeta   =         0.000000
siesta: Emolmec =         0.000000
siesta: Ekinion =         0.000000
siesta: Eharris =     -1501.243932
siesta: Etot    =     -1510.948914
siesta: FreeEng =     -1510.948914

        iscf     Eharris(eV)        E_KS(eV)     FreeEng(eV)     dDmax    Ef(eV) dHmax(eV)
   scf:    1    -1501.243932    -1510.948914    -1510.948914  1.981527 -8.456082 10.306345
timer: Routine,Calls,Time,% = IterSCF        1       4.966  42.76
   scf:    2    -1517.139230    -1514.422590    -1514.422590  0.135728 -4.893288  4.863545
   scf:    3    -1515.802749    -1515.449627    -1515.449627  0.127516 -3.238067  0.762522
   scf:    4    -1515.528109    -1515.492389    -1515.492389  0.009057 -3.220560  0.522410
   scf:    5    -1515.520476    -1515.508503    -1515.508503  0.009633 -3.175778  0.235011
   scf:    6    -1515.512135    -1515.510513    -1515.510513  0.005920 -3.123677  0.093759
   scf:    7    -1515.510864    -1515.510737    -1515.510737  0.004034 -3.074399  0.030214
   scf:    8    -1515.510961    -1515.510860    -1515.510860  0.000374 -3.071118  0.019974
   scf:    9    -1515.510937    -1515.510904    -1515.510904  0.000450 -3.070035  0.010220
   scf:   10    -1515.510914    -1515.510909    -1515.510909  0.000249 -3.070620  0.005267
   scf:   11    -1515.510912    -1515.510911    -1515.510911  0.000269 -3.071562  0.000877
   scf:   12    -1515.510911    -1515.510911    -1515.510911  0.000019 -3.071732  0.000515

SCF Convergence by DM+H criterion
max |DM_out - DM_in|         :     0.0000185880
max |H_out - H_in|      (eV) :     0.0005148364
SCF cycle converged after 12 iterations

Using DM_out to compute the final energy and forces
No. of atoms with KB's overlaping orbs in proc 0. Max # of overlaps:      13     118

siesta: E_KS(eV) =            -1515.5109

siesta: E_KS - E_eggbox =     -1515.5109

siesta: Atomic forces (eV/Ang):
----------------------------------------
   Tot    0.047125   -0.026207    0.000000
----------------------------------------
   Max    1.738037
   Res    0.565159    sqrt( Sum f_i^2 / 3N )
----------------------------------------
   Max    1.738037    constrained

Stress-tensor-Voigt (kbar):       -1.20       -1.05        0.00       -0.25       -0.00       -0.00
(Free)E + p*V (eV/cell)    -1511.7825
Target enthalpy (eV/cell)    -1515.5109
FIRE: No of elements:     39

                     ====================================
                        Begin FIRE opt. move =      1
                     ====================================

outcoor: Atomic coordinates (Ang):                          
    2.19021048    1.11926876    0.00000000   1       1  C.gga
    3.40733644    1.80606978    0.00000000   1       2  C.gga
    3.42561071    3.20377781    0.00000000   1       3  C.gga
    2.21918052    3.92087165   -0.00000000   1       4  C.gga
    1.00049418    3.22833068    0.00000000   1       5  C.gga
    0.98751754    1.83168426   -0.00000000   1       6  C.gga
    1.43567750    5.79317782   -0.00000000   2       7  H.gga
    2.17863420    0.03461729    0.00000000   2       8  H.gga
    4.34188129    1.25245974    0.00000000   2       9  H.gga
    4.37305504    3.73202569   -0.00000000   2      10  H.gga
    0.06232974    3.77577922   -0.00000000   2      11  H.gga
    0.04180217    1.29811390    0.00000000   2      12  H.gga
    2.25448143    5.27312599    0.00000000   3      13  O.gga

outcell: Unit cell vectors (Ang):
       20.000000    0.000000    0.000000
        0.000000   20.000000    0.000000
        0.000000    0.000000   20.000000

outcell: Cell vector modules (Ang)   :   20.000000   20.000000   20.000000
outcell: Cell angles (23,13,12) (deg):     90.0000     90.0000     90.0000
outcell: Cell volume (Ang**3)        :   8000.0000
<dSpData1D:S at geom step 1
  <sparsity:sparsity for geom step 1
    nrows_g=121 nrows=121 sparsity=.9985 nnzs=14619, refcount: 7>
  <dData1D:(new from dSpData1D) n=14619, refcount: 1>
refcount: 1>
new_DM -- step:     2
Re-using DM from previous geometries...
Number of DMs in history: 1
 DM extrapolation coefficients: 
1   1.00000
New DM after history re-use:
<dSpData2D:SpM extrapolated using coords
  <sparsity:sparsity for geom step 1
    nrows_g=121 nrows=121 sparsity=.9985 nnzs=14619, refcount: 8>
  <dData2D:(temp array for extrapolation) n=14619 m=1, refcount: 1>
refcount: 1>
No. of atoms with KB's overlaping orbs in proc 0. Max # of overlaps:      13     118
New grid distribution:   1
           1       1:  108    1:  108    1:  108

InitMesh: MESH =   216 x   216 x   216 =    10077696
InitMesh: (bp) =   108 x   108 x   108 =     1259712
InitMesh: Mesh cutoff (required, used) =   300.000   322.366 Ry
ExtMesh (bp) on 0 =   188 x   188 x   188 =     6644672
PhiOnMesh: Number of (b)points on node 0 =              1259712
PhiOnMesh: nlist on node 0 =              2631392

        iscf     Eharris(eV)        E_KS(eV)     FreeEng(eV)     dDmax    Ef(eV) dHmax(eV)
   scf:    1    -1515.634615    -1515.540230    -1515.540230  0.015317 -3.033175  0.089314
   scf:    2    -1515.536529    -1515.539313    -1515.539313  0.003920 -3.035357  0.169716
   scf:    3    -1515.540955    -1515.540565    -1515.540565  0.002609 -3.036101  0.004661
   scf:    4    -1515.540569    -1515.540567    -1515.540567  0.000107 -3.036504  0.002297
   scf:    5    -1515.540569    -1515.540568    -1515.540568  0.000092 -3.036521  0.001218
   scf:    6    -1515.540568    -1515.540568    -1515.540568  0.000045 -3.036403  0.000715

SCF Convergence by DM+H criterion
max |DM_out - DM_in|         :     0.0000453697
max |H_out - H_in|      (eV) :     0.0007147442
SCF cycle converged after 6 iterations

Using DM_out to compute the final energy and forces
No. of atoms with KB's overlaping orbs in proc 0. Max # of overlaps:      13     118

siesta: E_KS(eV) =            -1515.5406

siesta: Atomic forces (eV/Ang):
----------------------------------------
   Tot    0.043454   -0.020075   -0.000000
----------------------------------------
   Max    1.553594
   Res    0.485067    sqrt( Sum f_i^2 / 3N )
----------------------------------------
   Max    1.553594    constrained

Stress-tensor-Voigt (kbar):       -1.12       -0.99        0.00       -0.27       -0.00       -0.00
(Free)E + p*V (eV/cell)    -1512.0275
Target enthalpy (eV/cell)    -1515.5406

                     ====================================
                        Begin FIRE opt. move =      2
                     ====================================

outcoor: Atomic coordinates (Ang):                          
    2.19019802    1.11919266    0.00000000   1       1  C.gga
    3.40386048    1.80822973    0.00000000   1       2  C.gga
    3.42669708    3.20335138    0.00000000   1       3  C.gga
    2.21058929    3.92033673   -0.00000000   1       4  C.gga
    1.00125134    3.22473845    0.00000000   1       5  C.gga
    0.98995876    1.83323928   -0.00000000   1       6  C.gga
    1.43131751    5.78767734   -0.00000000   2       7  H.gga
    2.17852986    0.02795337    0.00000000   2       8  H.gga
    4.34768357    1.24952620    0.00000000   2       9  H.gga
    4.37833908    3.73610738   -0.00000000   2      10  H.gga
    0.05676559    3.77975625   -0.00000000   2      11  H.gga
    0.03591842    1.29505790    0.00000000   2      12  H.gga
    2.26745831    5.28395087    0.00000000   3      13  O.gga

outcell: Unit cell vectors (Ang):
       20.000000    0.000000    0.000000
        0.000000   20.000000    0.000000
        0.000000    0.000000   20.000000

outcell: Cell vector modules (Ang)   :   20.000000   20.000000   20.000000
outcell: Cell angles (23,13,12) (deg):     90.0000     90.0000     90.0000
outcell: Cell volume (Ang**3)        :   8000.0000
<dSpData1D:S at geom step 2
  <sparsity:sparsity for geom step 2
    nrows_g=121 nrows=121 sparsity=.9981 nnzs=14613, refcount: 7>
  <dData1D:(new from dSpData1D) n=14613, refcount: 1>
refcount: 1>
new_DM -- step:     3
Re-using DM from previous geometries...
Number of DMs in history: 1
 DM extrapolation coefficients: 
1   1.00000
New DM after history re-use:
<dSpData2D:SpM extrapolated using coords
  <sparsity:sparsity for geom step 2
    nrows_g=121 nrows=121 sparsity=.9981 nnzs=14613, refcount: 8>
  <dData2D:(temp array for extrapolation) n=14613 m=1, refcount: 1>
refcount: 1>
No. of atoms with KB's overlaping orbs in proc 0. Max # of overlaps:      13     118
New grid distribution:   1
           1       1:  108    1:  108    1:  108

InitMesh: MESH =   216 x   216 x   216 =    10077696
InitMesh: (bp) =   108 x   108 x   108 =     1259712
InitMesh: Mesh cutoff (required, used) =   300.000   322.366 Ry
ExtMesh (bp) on 0 =   188 x   188 x   188 =     6644672
PhiOnMesh: Number of (b)points on node 0 =              1259712
PhiOnMesh: nlist on node 0 =              2631395

        iscf     Eharris(eV)        E_KS(eV)     FreeEng(eV)     dDmax    Ef(eV) dHmax(eV)
   scf:    1    -1515.863931    -1515.597955    -1515.597955  0.042827 -2.931933  0.244157
   scf:    2    -1515.567246    -1515.590285    -1515.590285  0.012222 -2.926114  0.457827
   scf:    3    -1515.603836    -1515.600643    -1515.600643  0.008195 -2.936455  0.013251
   scf:    4    -1515.600672    -1515.600659    -1515.600659  0.000323 -2.937493  0.006394
   scf:    5    -1515.600669    -1515.600664    -1515.600664  0.000273 -2.937448  0.003486
   scf:    6    -1515.600667    -1515.600666    -1515.600666  0.000136 -2.937070  0.002013
   scf:    7    -1515.600667    -1515.600666    -1515.600666  0.000119 -2.936718  0.000432
   scf:    8    -1515.600666    -1515.600666    -1515.600666  0.000016 -2.936697  0.000313

SCF Convergence by DM+H criterion
max |DM_out - DM_in|         :     0.0000160108
max |H_out - H_in|      (eV) :     0.0003128705
SCF cycle converged after 8 iterations

Using DM_out to compute the final energy and forces
No. of atoms with KB's overlaping orbs in proc 0. Max # of overlaps:      13     118

siesta: E_KS(eV) =            -1515.6007

siesta: Atomic forces (eV/Ang):
----------------------------------------
   Tot    0.017108    0.004542   -0.000000
----------------------------------------
   Max    0.993634
   Res    0.335563    sqrt( Sum f_i^2 / 3N )
----------------------------------------
   Max    0.993634    constrained

Stress-tensor-Voigt (kbar):       -0.91       -0.83        0.00       -0.31        0.00       -0.00
(Free)E + p*V (eV/cell)    -1512.7059
Target enthalpy (eV/cell)    -1515.6007

                     ====================================
                        Begin FIRE opt. move =      3
                     ====================================

outcoor: Atomic coordinates (Ang):                          
    2.18972630    1.11760477    0.00000000   1       1  C.gga
    3.40074150    1.81060139    0.00000000   1       2  C.gga
    3.42760990    3.20415984    0.00000000   1       3  C.gga
    2.20030991    3.92121087   -0.00000000   1       4  C.gga
    0.99972226    3.22127828    0.00000000   1       5  C.gga
    0.99215154    1.83338998   -0.00000000   1       6  C.gga
    1.42523157    5.77803065   -0.00000000   2       7  H.gga
    2.17837006    0.01779517    0.00000000   2       8  H.gga
    4.35591498    1.24548186    0.00000000   2       9  H.gga
    4.38639405    3.74257596   -0.00000000   2      10  H.gga
    0.04859720    3.78553928   -0.00000000   2      11  H.gga
    0.02740287    1.29073124    0.00000000   2      12  H.gga
    2.28688776    5.30052420    0.00000000   3      13  O.gga

outcell: Unit cell vectors (Ang):
       20.000000    0.000000    0.000000
        0.000000   20.000000    0.000000
        0.000000    0.000000   20.000000

outcell: Cell vector modules (Ang)   :   20.000000   20.000000   20.000000
outcell: Cell angles (23,13,12) (deg):     90.0000     90.0000     90.0000
outcell: Cell volume (Ang**3)        :   8000.0000
<dSpData1D:S at geom step 3
  <sparsity:sparsity for geom step 3
    nrows_g=121 nrows=121 sparsity=.9981 nnzs=14613, refcount: 7>
  <dData1D:(new from dSpData1D) n=14613, refcount: 1>
refcount: 1>
new_DM -- step:     4
Re-using DM from previous geometries...
Number of DMs in history: 1
 DM extrapolation coefficients: 
1   1.00000
New DM after history re-use:
<dSpData2D:SpM extrapolated using coords
  <sparsity:sparsity for geom step 3
    nrows_g=121 nrows=121 sparsity=.9981 nnzs=14613, refcount: 8>
  <dData2D:(temp array for extrapolation) n=14613 m=1, refcount: 1>
refcount: 1>
Note: For starting DM, Qtot, Tr[D*S] =         36.00000000         35.95923125
No. of atoms with KB's overlaping orbs in proc 0. Max # of overlaps:      13     118
New grid distribution:   1
           1       1:  108    1:  108    1:  108

InitMesh: MESH =   216 x   216 x   216 =    10077696
InitMesh: (bp) =   108 x   108 x   108 =     1259712
InitMesh: Mesh cutoff (required, used) =   300.000   322.366 Ry
ExtMesh (bp) on 0 =   188 x   188 x   188 =     6644672
PhiOnMesh: Number of (b)points on node 0 =              1259712
PhiOnMesh: nlist on node 0 =              2631213

        iscf     Eharris(eV)        E_KS(eV)     FreeEng(eV)     dDmax    Ef(eV) dHmax(eV)
   scf:    1    -1516.023653    -1515.635433    -1515.635433  0.058681 -2.808309  0.291926
   scf:    2    -1515.581051    -1515.621595    -1515.621595  0.016445 -4.945573  0.592652
   scf:    3    -1515.645283    -1515.639815    -1515.639815  0.011101 -2.810949  0.018763
   scf:    4    -1515.639867    -1515.639843    -1515.639843  0.000491 -2.812242  0.008431
   scf:    5    -1515.639864    -1515.639854    -1515.639854  0.000416 -2.812125  0.004757
   scf:    6    -1515.639859    -1515.639857    -1515.639857  0.000194 -2.811608  0.002653
   scf:    7    -1515.639859    -1515.639858    -1515.639858  0.000176 -2.811139  0.000642
   scf:    8    -1515.639858    -1515.639858    -1515.639858  0.000026 -2.811127  0.000431

SCF Convergence by DM+H criterion
max |DM_out - DM_in|         :     0.0000257324
max |H_out - H_in|      (eV) :     0.0004313688
SCF cycle converged after 8 iterations

Using DM_out to compute the final energy and forces
No. of atoms with KB's overlaping orbs in proc 0. Max # of overlaps:      13     118

siesta: E_KS(eV) =            -1515.6399

siesta: Atomic forces (eV/Ang):
----------------------------------------
   Tot   -0.035396    0.028524   -0.000000
----------------------------------------
   Max    0.966448
   Res    0.376866    sqrt( Sum f_i^2 / 3N )
----------------------------------------
   Max    0.966448    constrained

Stress-tensor-Voigt (kbar):       -0.59       -0.56        0.00       -0.32       -0.00       -0.00
(Free)E + p*V (eV/cell)    -1513.7257
Target enthalpy (eV/cell)    -1515.6399

                     ====================================
                        Begin FIRE opt. move =      4
                     ====================================

outcoor: Atomic coordinates (Ang):                          
    2.18851961    1.11285915    0.00000000   1       1  C.gga
    3.40140397    1.81148726    0.00000000   1       2  C.gga
    3.42742121    3.20788230    0.00000000   1       3  C.gga
    2.19449882    3.92580472   -0.00000000   1       4  C.gga
    0.99292051    3.22134003    0.00000000   1       5  C.gga
    0.99143673    1.82935985    0.00000000   1       6  C.gga
    1.41984703    5.76454449   -0.00000000   2       7  H.gga
    2.17818950    0.00630990    0.00000000   2       8  H.gga
    4.36402630    1.24177975    0.00000000   2       9  H.gga
    4.39529300    3.75033020   -0.00000000   2      10  H.gga
    0.03977641    3.79158183   -0.00000000   2      11  H.gga
    0.01863096    1.28644766    0.00000000   2      12  H.gga
    2.30742403    5.31915696    0.00000000   3      13  O.gga

outcell: Unit cell vectors (Ang):
       20.000000    0.000000    0.000000
        0.000000   20.000000    0.000000
        0.000000    0.000000   20.000000

outcell: Cell vector modules (Ang)   :   20.000000   20.000000   20.000000
outcell: Cell angles (23,13,12) (deg):     90.0000     90.0000     90.0000
outcell: Cell volume (Ang**3)        :   8000.0000
<dSpData1D:S at geom step 4
  <sparsity:sparsity for geom step 4
    nrows_g=121 nrows=121 sparsity=.9981 nnzs=14613, refcount: 7>
  <dData1D:(new from dSpData1D) n=14613, refcount: 1>
refcount: 1>
new_DM -- step:     5
Re-using DM from previous geometries...
Number of DMs in history: 1
 DM extrapolation coefficients: 
1   1.00000
New DM after history re-use:
<dSpData2D:SpM extrapolated using coords
  <sparsity:sparsity for geom step 4
    nrows_g=121 nrows=121 sparsity=.9981 nnzs=14613, refcount: 8>
  <dData2D:(temp array for extrapolation) n=14613 m=1, refcount: 1>
refcount: 1>
Note: For starting DM, Qtot, Tr[D*S] =         36.00000000         35.95295767
No. of atoms with KB's overlaping orbs in proc 0. Max # of overlaps:      13     118
New grid distribution:   1
           1       1:  108    1:  108    1:  108

InitMesh: MESH =   216 x   216 x   216 =    10077696
InitMesh: (bp) =   108 x   108 x   108 =     1259712
InitMesh: Mesh cutoff (required, used) =   300.000   322.366 Ry
ExtMesh (bp) on 0 =   188 x   188 x   188 =     6644672
PhiOnMesh: Number of (b)points on node 0 =              1259712
PhiOnMesh: nlist on node 0 =              2631175

        iscf     Eharris(eV)        E_KS(eV)     FreeEng(eV)     dDmax    Ef(eV) dHmax(eV)
   scf:    1    -1516.070159    -1515.655895    -1515.655895  0.053191 -4.875334  0.203006
   scf:    2    -1515.623642    -1515.647538    -1515.647538  0.013651 -4.886434  0.415523
   scf:    3    -1515.661396    -1515.658276    -1515.658276  0.008500 -4.885256  0.018494
   scf:    4    -1515.658319    -1515.658299    -1515.658299  0.000466 -4.886556  0.009686
   scf:    5    -1515.658322    -1515.658311    -1515.658311  0.000448 -4.886823  0.003856
   scf:    6    -1515.658315    -1515.658313    -1515.658313  0.000163 -4.886542  0.002069
   scf:    7    -1515.658314    -1515.658314    -1515.658314  0.000165 -4.886319  0.000686
   scf:    8    -1515.658314    -1515.658314    -1515.658314  0.000031 -4.886327  0.000382

SCF Convergence by DM+H criterion
max |DM_out - DM_in|         :     0.0000305096
max |H_out - H_in|      (eV) :     0.0003822474
SCF cycle converged after 8 iterations

Using DM_out to compute the final energy and forces
No. of atoms with KB's overlaping orbs in proc 0. Max # of overlaps:      13     118

siesta: E_KS(eV) =            -1515.6583

siesta: Atomic forces (eV/Ang):
----------------------------------------
   Tot   -0.027819    0.011710   -0.000000
----------------------------------------
   Max    1.272166
   Res    0.440295    sqrt( Sum f_i^2 / 3N )
----------------------------------------
   Max    1.272166    constrained

Stress-tensor-Voigt (kbar):       -0.23       -0.18        0.00       -0.23       -0.00       -0.00
(Free)E + p*V (eV/cell)    -1514.9856
Target enthalpy (eV/cell)    -1515.6583

                     ====================================
                        Begin FIRE opt. move =      5
                     ====================================

outcoor: Atomic coordinates (Ang):                          
    2.18709508    1.10458622    0.00000000   1       1  C.gga
    3.40699925    1.81011179    0.00000000   1       2  C.gga
    3.42628758    3.21473518    0.00000000   1       3  C.gga
    2.19652308    3.93511191   -0.00000000   1       4  C.gga
    0.98086271    3.22634567    0.00000000   1       5  C.gga
    0.98630457    1.82093269    0.00000000   1       6  C.gga
    1.41739378    5.74818415   -0.00000000   2       7  H.gga
    2.17802415   -0.00463459    0.00000000   2       8  H.gga
    4.37019420    1.23948497    0.00000000   2       9  H.gga
    4.40299009    3.75818045   -0.00000000   2      10  H.gga
    0.03145686    3.79683443   -0.00000000   2      11  H.gga
    0.01130615    1.28303984    0.00000000   2      12  H.gga
    2.32404786    5.33605085    0.00000000   3      13  O.gga

outcell: Unit cell vectors (Ang):
       20.000000    0.000000    0.000000
        0.000000   20.000000    0.000000
        0.000000    0.000000   20.000000

outcell: Cell vector modules (Ang)   :   20.000000   20.000000   20.000000
outcell: Cell angles (23,13,12) (deg):     90.0000     90.0000     90.0000
outcell: Cell volume (Ang**3)        :   8000.0000
<dSpData1D:S at geom step 5
  <sparsity:sparsity for geom step 5
    nrows_g=121 nrows=121 sparsity=.9980 nnzs=14611, refcount: 7>
  <dData1D:(new from dSpData1D) n=14611, refcount: 1>
refcount: 1>
new_DM -- step:     6
Re-using DM from previous geometries...
Number of DMs in history: 1
 DM extrapolation coefficients: 
1   1.00000
New DM after history re-use:
<dSpData2D:SpM extrapolated using coords
  <sparsity:sparsity for geom step 5
    nrows_g=121 nrows=121 sparsity=.9980 nnzs=14611, refcount: 8>
  <dData2D:(temp array for extrapolation) n=14611 m=1, refcount: 1>
refcount: 1>
Note: For starting DM, Qtot, Tr[D*S] =         36.00000000         35.95619871
No. of atoms with KB's overlaping orbs in proc 0. Max # of overlaps:      13     117
New grid distribution:   1
           1       1:  108    1:  108    1:  108

InitMesh: MESH =   216 x   216 x   216 =    10077696
InitMesh: (bp) =   108 x   108 x   108 =     1259712
InitMesh: Mesh cutoff (required, used) =   300.000   322.366 Ry
ExtMesh (bp) on 0 =   188 x   188 x   188 =     6644672
PhiOnMesh: Number of (b)points on node 0 =              1259712
PhiOnMesh: nlist on node 0 =              2631233

        iscf     Eharris(eV)        E_KS(eV)     FreeEng(eV)     dDmax    Ef(eV) dHmax(eV)
   scf:    1    -1516.015173    -1515.675902    -1515.675902  0.033865 -4.862703  0.241853
   scf:    2    -1515.647090    -1515.668601    -1515.668601  0.011969 -4.975318  0.471296
   scf:    3    -1515.681178    -1515.678217    -1515.678217  0.008253 -4.899755  0.023710
   scf:    4    -1515.678262    -1515.678240    -1515.678240  0.000264 -4.900778  0.014793
   scf:    5    -1515.678271    -1515.678258    -1515.678258  0.000529 -4.903065  0.002824
   scf:    6    -1515.678259    -1515.678258    -1515.678258  0.000073 -4.903287  0.001560
   scf:    7    -1515.678259    -1515.678259    -1515.678259  0.000091 -4.903441  0.000377

SCF Convergence by DM+H criterion
max |DM_out - DM_in|         :     0.0000913901
max |H_out - H_in|      (eV) :     0.0003773088
SCF cycle converged after 7 iterations

Using DM_out to compute the final energy and forces
No. of atoms with KB's overlaping orbs in proc 0. Max # of overlaps:      13     117

siesta: E_KS(eV) =            -1515.6783

siesta: Atomic forces (eV/Ang):
----------------------------------------
   Tot    0.012132   -0.021365   -0.000000
----------------------------------------
   Max    0.949783
   Res    0.347017    sqrt( Sum f_i^2 / 3N )
----------------------------------------
   Max    0.949783    constrained

Stress-tensor-Voigt (kbar):        0.11        0.28        0.00       -0.04       -0.00        0.00
(Free)E + p*V (eV/cell)    -1516.3420
Target enthalpy (eV/cell)    -1515.6783

                     ====================================
                        Begin FIRE opt. move =      6
                     ====================================

outcoor: Atomic coordinates (Ang):                          
    2.18671859    1.09391957    0.00000000   1       1  C.gga
    3.41586888    1.80691454    0.00000000   1       2  C.gga
    3.42565374    3.22325909   -0.00000000   1       3  C.gga
    2.20572277    3.94851516   -0.00000000   1       4  C.gga
    0.96716149    3.23527880   -0.00000000   1       5  C.gga
    0.97685034    1.81099065    0.00000000   1       6  C.gga
    1.41934368    5.72999007    0.00000000   2       7  H.gga
    2.17791490   -0.01413621    0.00000000   2       8  H.gga
    4.37383128    1.23906855    0.00000000   2       9  H.gga
    4.40774288    3.76526131   -0.00000000   2      10  H.gga
    0.02339583    3.80117429   -0.00000000   2      11  H.gga
    0.00584535    1.28053329    0.00000000   2      12  H.gga
    2.33351538    5.34819337   -0.00000000   3      13  O.gga

outcell: Unit cell vectors (Ang):
       20.000000    0.000000    0.000000
        0.000000   20.000000    0.000000
        0.000000    0.000000   20.000000

outcell: Cell vector modules (Ang)   :   20.000000   20.000000   20.000000
outcell: Cell angles (23,13,12) (deg):     90.0000     90.0000     90.0000
outcell: Cell volume (Ang**3)        :   8000.0000
<dSpData1D:S at geom step 6
  <sparsity:sparsity for geom step 6
    nrows_g=121 nrows=121 sparsity=.9980 nnzs=14611, refcount: 7>
  <dData1D:(new from dSpData1D) n=14611, refcount: 1>
refcount: 1>
new_DM -- step:     7
Re-using DM from previous geometries...
Number of DMs in history: 1
 DM extrapolation coefficients: 
1   1.00000
New DM after history re-use:
<dSpData2D:SpM extrapolated using coords
  <sparsity:sparsity for geom step 6
    nrows_g=121 nrows=121 sparsity=.9980 nnzs=14611, refcount: 8>
  <dData2D:(temp array for extrapolation) n=14611 m=1, refcount: 1>
refcount: 1>
No. of atoms with KB's overlaping orbs in proc 0. Max # of overlaps:      13     117
New grid distribution:   1
           1       1:  108    1:  108    1:  108

InitMesh: MESH =   216 x   216 x   216 =    10077696
InitMesh: (bp) =   108 x   108 x   108 =     1259712
InitMesh: Mesh cutoff (required, used) =   300.000   322.366 Ry
ExtMesh (bp) on 0 =   188 x   188 x   188 =     6644672
PhiOnMesh: Number of (b)points on node 0 =              1259712
PhiOnMesh: nlist on node 0 =              2631386

        iscf     Eharris(eV)        E_KS(eV)     FreeEng(eV)     dDmax    Ef(eV) dHmax(eV)
   scf:    1    -1515.831452    -1515.666720    -1515.666720  0.024625 -4.945852  0.488110
   scf:    2    -1515.520642    -1515.628501    -1515.628501  0.039279 -3.079859  1.154582
   scf:    3    -1515.691185    -1515.676698    -1515.676698  0.026832 -2.888329  0.023434
   scf:    4    -1515.676799    -1515.676752    -1515.676752  0.000303 -2.889772  0.013494
   scf:    5    -1515.676795    -1515.676776    -1515.676776  0.000360 -2.892951  0.005720
   scf:    6    -1515.676781    -1515.676779    -1515.676779  0.000149 -2.894631  0.002787
   scf:    7    -1515.676780    -1515.676780    -1515.676780  0.000089 -2.895511  0.000784

SCF Convergence by DM+H criterion
max |DM_out - DM_in|         :     0.0000894672
max |H_out - H_in|      (eV) :     0.0007835709
SCF cycle converged after 7 iterations

Using DM_out to compute the final energy and forces
No. of atoms with KB's overlaping orbs in proc 0. Max # of overlaps:      13     117

siesta: E_KS(eV) =            -1515.6768

siesta: Atomic forces (eV/Ang):
----------------------------------------
   Tot    0.032226   -0.044220    0.000000
----------------------------------------
   Max    0.841326
   Res    0.305521    sqrt( Sum f_i^2 / 3N )
----------------------------------------
   Max    0.841326    constrained

Stress-tensor-Voigt (kbar):        0.36        0.71        0.00        0.16        0.00       -0.00
(Free)E + p*V (eV/cell)    -1517.4763
Target enthalpy (eV/cell)    -1515.6768

                     ====================================
                        Begin FIRE opt. move =      7
                     ====================================

outcoor: Atomic coordinates (Ang):                          
    2.18754166    1.09426615    0.00000000   1       1  C.gga
    3.41510120    1.80705973   -0.00000000   1       2  C.gga
    3.42684495    3.22260761   -0.00000000   1       3  C.gga
    2.20603101    3.94893679    0.00000000   1       4  C.gga
    0.96931096    3.23520734   -0.00000000   1       5  C.gga
    0.97649817    1.81270188   -0.00000000   1       6  C.gga
    1.42061764    5.72951064   -0.00000000   2       7  H.gga
    2.17796153   -0.01402767   -0.00000000   2       8  H.gga
    4.37351868    1.23953495    0.00000000   2       9  H.gga
    4.40648220    3.76503888   -0.00000000   2      10  H.gga
    0.02261012    3.80136759   -0.00000000   2      11  H.gga
    0.00577899    1.28037581    0.00000000   2      12  H.gga
    2.33135091    5.34626900    0.00000000   3      13  O.gga

outcell: Unit cell vectors (Ang):
       20.000000    0.000000    0.000000
        0.000000   20.000000    0.000000
        0.000000    0.000000   20.000000

outcell: Cell vector modules (Ang)   :   20.000000   20.000000   20.000000
outcell: Cell angles (23,13,12) (deg):     90.0000     90.0000     90.0000
outcell: Cell volume (Ang**3)        :   8000.0000
<dSpData1D:S at geom step 7
  <sparsity:sparsity for geom step 7
    nrows_g=121 nrows=121 sparsity=.9980 nnzs=14611, refcount: 7>
  <dData1D:(new from dSpData1D) n=14611, refcount: 1>
refcount: 1>
new_DM -- step:     8
Re-using DM from previous geometries...
Number of DMs in history: 1
 DM extrapolation coefficients: 
1   1.00000
New DM after history re-use:
<dSpData2D:SpM extrapolated using coords
  <sparsity:sparsity for geom step 7
    nrows_g=121 nrows=121 sparsity=.9980 nnzs=14611, refcount: 8>
  <dData2D:(temp array for extrapolation) n=14611 m=1, refcount: 1>
refcount: 1>
No. of atoms with KB's overlaping orbs in proc 0. Max # of overlaps:      13     117
New grid distribution:   1
           1       1:  108    1:  108    1:  108

InitMesh: MESH =   216 x   216 x   216 =    10077696
InitMesh: (bp) =   108 x   108 x   108 =     1259712
InitMesh: Mesh cutoff (required, used) =   300.000   322.366 Ry
ExtMesh (bp) on 0 =   188 x   188 x   188 =     6644672
PhiOnMesh: Number of (b)points on node 0 =              1259712
PhiOnMesh: nlist on node 0 =              2631471

        iscf     Eharris(eV)        E_KS(eV)     FreeEng(eV)     dDmax    Ef(eV) dHmax(eV)
   scf:    1    -1515.634217    -1515.685138    -1515.685138  0.005530 -2.899818  0.082979
   scf:    2    -1515.679678    -1515.683623    -1515.683623  0.007071 -2.959460  0.198026
   scf:    3    -1515.685866    -1515.685393    -1515.685393  0.004948 -2.917535  0.006240
   scf:    4    -1515.685396    -1515.685395    -1515.685395  0.000136 -2.918367  0.003584
   scf:    5    -1515.685396    -1515.685396    -1515.685396  0.000217 -2.919486  0.000402
   scf:    6    -1515.685396    -1515.685396    -1515.685396  0.000027 -2.919546  0.000222

SCF Convergence by DM+H criterion
max |DM_out - DM_in|         :     0.0000269881
max |H_out - H_in|      (eV) :     0.0002216211
SCF cycle converged after 6 iterations

Using DM_out to compute the final energy and forces
No. of atoms with KB's overlaping orbs in proc 0. Max # of overlaps:      13     117

siesta: E_KS(eV) =            -1515.6854

siesta: Atomic forces (eV/Ang):
----------------------------------------
   Tot    0.028127   -0.040685   -0.000000
----------------------------------------
   Max    0.717712
   Res    0.258191    sqrt( Sum f_i^2 / 3N )
----------------------------------------
   Max    0.717712    constrained

Stress-tensor-Voigt (kbar):        0.35        0.67        0.00        0.13        0.00       -0.00
(Free)E + p*V (eV/cell)    -1517.3912
Target enthalpy (eV/cell)    -1515.6854

                     ====================================
                        Begin FIRE opt. move =      8
                     ====================================

outcoor: Atomic coordinates (Ang):                          
    2.18848880    1.09470878    0.00000000   1       1  C.gga
    3.41419544    1.80722971   -0.00000000   1       2  C.gga
    3.42825337    3.22182799   -0.00000000   1       3  C.gga
    2.20648034    3.94940709    0.00000000   1       4  C.gga
    0.97188991    3.23518581   -0.00000000   1       5  C.gga
    0.97610690    1.81476255   -0.00000000   1       6  C.gga
    1.42213752    5.72892851   -0.00000000   2       7  H.gga
    2.17802247   -0.01388119   -0.00000000   2       8  H.gga
    4.37311627    1.24012551   -0.00000000   2       9  H.gga
    4.40493716    3.76477423    0.00000000   2      10  H.gga
    0.02168927    3.80157835    0.00000000   2      11  H.gga
    0.00570908    1.28019633   -0.00000000   2      12  H.gga
    2.32872277    5.34386409    0.00000000   3      13  O.gga

outcell: Unit cell vectors (Ang):
       20.000000    0.000000    0.000000
        0.000000   20.000000    0.000000
        0.000000    0.000000   20.000000

outcell: Cell vector modules (Ang)   :   20.000000   20.000000   20.000000
outcell: Cell angles (23,13,12) (deg):     90.0000     90.0000     90.0000
outcell: Cell volume (Ang**3)        :   8000.0000
<dSpData1D:S at geom step 8
  <sparsity:sparsity for geom step 8
    nrows_g=121 nrows=121 sparsity=.9980 nnzs=14611, refcount: 7>
  <dData1D:(new from dSpData1D) n=14611, refcount: 1>
refcount: 1>
new_DM -- step:     9
Re-using DM from previous geometries...
Number of DMs in history: 1
 DM extrapolation coefficients: 
1   1.00000
New DM after history re-use:
<dSpData2D:SpM extrapolated using coords
  <sparsity:sparsity for geom step 8
    nrows_g=121 nrows=121 sparsity=.9980 nnzs=14611, refcount: 8>
  <dData2D:(temp array for extrapolation) n=14611 m=1, refcount: 1>
refcount: 1>
No. of atoms with KB's overlaping orbs in proc 0. Max # of overlaps:      13     117
New grid distribution:   1
           1       1:  108    1:  108    1:  108

InitMesh: MESH =   216 x   216 x   216 =    10077696
InitMesh: (bp) =   108 x   108 x   108 =     1259712
InitMesh: Mesh cutoff (required, used) =   300.000   322.366 Ry
ExtMesh (bp) on 0 =   188 x   188 x   188 =     6644672
PhiOnMesh: Number of (b)points on node 0 =              1259712
PhiOnMesh: nlist on node 0 =              2631367

        iscf     Eharris(eV)        E_KS(eV)     FreeEng(eV)     dDmax    Ef(eV) dHmax(eV)
   scf:    1    -1515.630530    -1515.693488    -1515.693488  0.006799 -2.925167  0.100365
   scf:    2    -1515.685328    -1515.691223    -1515.691223  0.008552 -2.997391  0.239569
   scf:    3    -1515.694574    -1515.693868    -1515.693868  0.005985 -2.946592  0.007513
   scf:    4    -1515.693872    -1515.693870    -1515.693870  0.000166 -2.947578  0.004332
   scf:    5    -1515.693872    -1515.693871    -1515.693871  0.000264 -2.948907  0.000458
   scf:    6    -1515.693871    -1515.693871    -1515.693871  0.000032 -2.948977  0.000268

SCF Convergence by DM+H criterion
max |DM_out - DM_in|         :     0.0000324560
max |H_out - H_in|      (eV) :     0.0002680945
SCF cycle converged after 6 iterations

Using DM_out to compute the final energy and forces
No. of atoms with KB's overlaping orbs in proc 0. Max # of overlaps:      13     117

siesta: E_KS(eV) =            -1515.6939

siesta: Atomic forces (eV/Ang):
----------------------------------------
   Tot    0.023578   -0.036153    0.000000
----------------------------------------
   Max    0.659826
   Res    0.207176    sqrt( Sum f_i^2 / 3N )
----------------------------------------
   Max    0.659826    constrained

Stress-tensor-Voigt (kbar):        0.32        0.62        0.00        0.10       -0.00       -0.00
(Free)E + p*V (eV/cell)    -1517.2798
Target enthalpy (eV/cell)    -1515.6939

                     ====================================
                        Begin FIRE opt. move =      9
                     ====================================

outcoor: Atomic coordinates (Ang):                          
    2.18958459    1.09535218    0.00000000   1       1  C.gga
    3.41307999    1.80743525   -0.00000000   1       2  C.gga
    3.42999619    3.22083313    0.00000000   1       3  C.gga
    2.20728353    3.94990164    0.00000000   1       4  C.gga
    0.97519452    3.23534456   -0.00000000   1       5  C.gga
    0.97569442    1.81742302   -0.00000000   1       6  C.gga
    1.42405383    5.72816327   -0.00000000   2       7  H.gga
    2.17811505   -0.01364548   -0.00000000   2       8  H.gga
    4.37252204    1.24097187    0.00000000   2       9  H.gga
    4.40286621    3.76444347   -0.00000000   2      10  H.gga
    0.02057299    3.80178812    0.00000000   2      11  H.gga
    0.00564867    1.27999507   -0.00000000   2      12  H.gga
    2.32527257    5.34050857    0.00000000   3      13  O.gga

outcell: Unit cell vectors (Ang):
       20.000000    0.000000    0.000000
        0.000000   20.000000    0.000000
        0.000000    0.000000   20.000000

outcell: Cell vector modules (Ang)   :   20.000000   20.000000   20.000000
outcell: Cell angles (23,13,12) (deg):     90.0000     90.0000     90.0000
outcell: Cell volume (Ang**3)        :   8000.0000
<dSpData1D:S at geom step 9
  <sparsity:sparsity for geom step 9
    nrows_g=121 nrows=121 sparsity=.9980 nnzs=14611, refcount: 7>
  <dData1D:(new from dSpData1D) n=14611, refcount: 1>
refcount: 1>
new_DM -- step:    10
Re-using DM from previous geometries...
Number of DMs in history: 1
 DM extrapolation coefficients: 
1   1.00000
New DM after history re-use:
<dSpData2D:SpM extrapolated using coords
  <sparsity:sparsity for geom step 9
    nrows_g=121 nrows=121 sparsity=.9980 nnzs=14611, refcount: 8>
  <dData2D:(temp array for extrapolation) n=14611 m=1, refcount: 1>
refcount: 1>
No. of atoms with KB's overlaping orbs in proc 0. Max # of overlaps:      13     117
New grid distribution:   1
           1       1:  108    1:  108    1:  108

InitMesh: MESH =   216 x   216 x   216 =    10077696
InitMesh: (bp) =   108 x   108 x   108 =     1259712
InitMesh: Mesh cutoff (required, used) =   300.000   322.366 Ry
ExtMesh (bp) on 0 =   188 x   188 x   188 =     6644672
PhiOnMesh: Number of (b)points on node 0 =              1259712
PhiOnMesh: nlist on node 0 =              2631428

        iscf     Eharris(eV)        E_KS(eV)     FreeEng(eV)     dDmax    Ef(eV) dHmax(eV)
   scf:    1    -1515.616422    -1515.701326    -1515.701326  0.009181 -2.957381  0.128477
   scf:    2    -1515.686887    -1515.697315    -1515.697315  0.011074 -3.050386  0.308541
   scf:    3    -1515.703242    -1515.701993    -1515.701993  0.007754 -2.984839  0.009452
   scf:    4    -1515.701999    -1515.701996    -1515.701996  0.000217 -2.986059  0.005491
   scf:    5    -1515.702000    -1515.701998    -1515.701998  0.000346 -2.987728  0.000576
   scf:    6    -1515.701998    -1515.701998    -1515.701998  0.000041 -2.987820  0.000351

SCF Convergence by DM+H criterion
max |DM_out - DM_in|         :     0.0000406967
max |H_out - H_in|      (eV) :     0.0003508629
SCF cycle converged after 6 iterations

Using DM_out to compute the final energy and forces
No. of atoms with KB's overlaping orbs in proc 0. Max # of overlaps:      13     117

siesta: E_KS(eV) =            -1515.7020

siesta: Atomic forces (eV/Ang):
----------------------------------------
   Tot    0.014742   -0.030888   -0.000000
----------------------------------------
   Max    0.583604
   Res    0.156907    sqrt( Sum f_i^2 / 3N )
----------------------------------------
   Max    0.583604    constrained

Stress-tensor-Voigt (kbar):        0.29        0.56        0.00        0.05        0.00        0.00
(Free)E + p*V (eV/cell)    -1517.1182
Target enthalpy (eV/cell)    -1515.7020

                     ====================================
                        Begin FIRE opt. move =     10
                     ====================================

outcoor: Atomic coordinates (Ang):                          
    2.19056587    1.09621987    0.00000000   1       1  C.gga
    3.41192804    1.80764085   -0.00000000   1       2  C.gga
    3.43181288    3.21972355    0.00000000   1       3  C.gga
    2.20863009    3.95021747    0.00000000   1       4  C.gga
    0.97887443    3.23589488   -0.00000000   1       5  C.gga
    0.97540849    1.82042915    0.00000000   1       6  C.gga
    1.42610655    5.72727199   -0.00000000   2       7  H.gga
    2.17824757   -0.01327890   -0.00000000   2       8  H.gga
    4.37170117    1.24209883    0.00000000   2       9  H.gga
    4.40037812    3.76409797   -0.00000000   2      10  H.gga
    0.01946131    3.80190158    0.00000000   2      11  H.gga
    0.00564683    1.27983555   -0.00000000   2      12  H.gga
    2.32128105    5.33622019    0.00000000   3      13  O.gga

outcell: Unit cell vectors (Ang):
       20.000000    0.000000    0.000000
        0.000000   20.000000    0.000000
        0.000000    0.000000   20.000000

outcell: Cell vector modules (Ang)   :   20.000000   20.000000   20.000000
outcell: Cell angles (23,13,12) (deg):     90.0000     90.0000     90.0000
outcell: Cell volume (Ang**3)        :   8000.0000
<dSpData1D:S at geom step 10
  <sparsity:sparsity for geom step 10
    nrows_g=121 nrows=121 sparsity=.9980 nnzs=14611, refcount: 7>
  <dData1D:(new from dSpData1D) n=14611, refcount: 1>
refcount: 1>
new_DM -- step:    11
Re-using DM from previous geometries...
Number of DMs in history: 1
 DM extrapolation coefficients: 
1   1.00000
New DM after history re-use:
<dSpData2D:SpM extrapolated using coords
  <sparsity:sparsity for geom step 10
    nrows_g=121 nrows=121 sparsity=.9980 nnzs=14611, refcount: 8>
  <dData2D:(temp array for extrapolation) n=14611 m=1, refcount: 1>
refcount: 1>
No. of atoms with KB's overlaping orbs in proc 0. Max # of overlaps:      13     117
New grid distribution:   1
           1       1:  108    1:  108    1:  108

InitMesh: MESH =   216 x   216 x   216 =    10077696
InitMesh: (bp) =   108 x   108 x   108 =     1259712
InitMesh: Mesh cutoff (required, used) =   300.000   322.366 Ry
ExtMesh (bp) on 0 =   188 x   188 x   188 =     6644672
PhiOnMesh: Number of (b)points on node 0 =              1259712
PhiOnMesh: nlist on node 0 =              2631442

        iscf     Eharris(eV)        E_KS(eV)     FreeEng(eV)     dDmax    Ef(eV) dHmax(eV)
   scf:    1    -1515.605363    -1515.706954    -1515.706954  0.011074 -2.999179  0.141378
   scf:    2    -1515.686742    -1515.701332    -1515.701332  0.012471 -3.102771  0.344569
   scf:    3    -1515.709623    -1515.707877    -1515.707877  0.008747 -3.029483  0.010142
   scf:    4    -1515.707885    -1515.707881    -1515.707881  0.000249 -3.030752  0.005966
   scf:    5    -1515.707886    -1515.707884    -1515.707884  0.000395 -3.032526  0.000675
   scf:    6    -1515.707884    -1515.707884    -1515.707884  0.000044 -3.032634  0.000404

SCF Convergence by DM+H criterion
max |DM_out - DM_in|         :     0.0000437228
max |H_out - H_in|      (eV) :     0.0004042727
SCF cycle converged after 6 iterations

Using DM_out to compute the final energy and forces
No. of atoms with KB's overlaping orbs in proc 0. Max # of overlaps:      13     117

siesta: E_KS(eV) =            -1515.7079

siesta: Atomic forces (eV/Ang):
----------------------------------------
   Tot    0.002238   -0.024650   -0.000000
----------------------------------------
   Max    0.478485
   Res    0.133061    sqrt( Sum f_i^2 / 3N )
----------------------------------------
   Max    0.478485    constrained

Stress-tensor-Voigt (kbar):        0.25        0.48        0.00        0.01        0.00       -0.00
(Free)E + p*V (eV/cell)    -1516.9160
Target enthalpy (eV/cell)    -1515.7079

                     ====================================
                        Begin FIRE opt. move =     11
                     ====================================

outcoor: Atomic coordinates (Ang):                          
    2.19111266    1.09730516   -0.00000000   1       1  C.gga
    3.41095935    1.80780774   -0.00000000   1       2  C.gga
    3.43335918    3.21862832    0.00000000   1       3  C.gga
    2.21066183    3.95008475    0.00000000   1       4  C.gga
    0.98242373    3.23704061    0.00000000   1       5  C.gga
    0.97540744    1.82341542    0.00000000   1       6  C.gga
    1.42790988    5.72634211   -0.00000000   2       7  H.gga
    2.17842477   -0.01273167    0.00000000   2       8  H.gga
    4.37064341    1.24350201    0.00000000   2       9  H.gga
    4.39767861    3.76381682   -0.00000000   2      10  H.gga
    0.01862129    3.80181141    0.00000000   2      11  H.gga
    0.00577310    1.27980811   -0.00000000   2      12  H.gga
    2.31722174    5.33116250    0.00000000   3      13  O.gga

outcell: Unit cell vectors (Ang):
       20.000000    0.000000    0.000000
        0.000000   20.000000    0.000000
        0.000000    0.000000   20.000000

outcell: Cell vector modules (Ang)   :   20.000000   20.000000   20.000000
outcell: Cell angles (23,13,12) (deg):     90.0000     90.0000     90.0000
outcell: Cell volume (Ang**3)        :   8000.0000
<dSpData1D:S at geom step 11
  <sparsity:sparsity for geom step 11
    nrows_g=121 nrows=121 sparsity=.9980 nnzs=14611, refcount: 7>
  <dData1D:(new from dSpData1D) n=14611, refcount: 1>
refcount: 1>
new_DM -- step:    12
Re-using DM from previous geometries...
Number of DMs in history: 1
 DM extrapolation coefficients: 
1   1.00000
New DM after history re-use:
<dSpData2D:SpM extrapolated using coords
  <sparsity:sparsity for geom step 11
    nrows_g=121 nrows=121 sparsity=.9980 nnzs=14611, refcount: 8>
  <dData2D:(temp array for extrapolation) n=14611 m=1, refcount: 1>
refcount: 1>
No. of atoms with KB's overlaping orbs in proc 0. Max # of overlaps:      13     117
New grid distribution:   1
           1       1:  108    1:  108    1:  108

InitMesh: MESH =   216 x   216 x   216 =    10077696
InitMesh: (bp) =   108 x   108 x   108 =     1259712
InitMesh: Mesh cutoff (required, used) =   300.000   322.366 Ry
ExtMesh (bp) on 0 =   188 x   188 x   188 =     6644672
PhiOnMesh: Number of (b)points on node 0 =              1259712
PhiOnMesh: nlist on node 0 =              2631476

        iscf     Eharris(eV)        E_KS(eV)     FreeEng(eV)     dDmax    Ef(eV) dHmax(eV)
   scf:    1    -1515.602410    -1515.710085    -1515.710085  0.011982 -3.046396  0.130329
   scf:    2    -1515.687641    -1515.703833    -1515.703833  0.012023 -3.144276  0.327737
   scf:    3    -1515.713030    -1515.711096    -1515.711096  0.008465 -3.074540  0.008954
   scf:    4    -1515.711103    -1515.711100    -1515.711100  0.000250 -3.075588  0.005389
   scf:    5    -1515.711104    -1515.711102    -1515.711102  0.000390 -3.077115  0.000755
   scf:    6    -1515.711102    -1515.711102    -1515.711102  0.000039 -3.077231  0.000441

SCF Convergence by DM+H criterion
max |DM_out - DM_in|         :     0.0000393556
max |H_out - H_in|      (eV) :     0.0004410443
SCF cycle converged after 6 iterations

Using DM_out to compute the final energy and forces
No. of atoms with KB's overlaping orbs in proc 0. Max # of overlaps:      13     117

siesta: E_KS(eV) =            -1515.7111

siesta: Atomic forces (eV/Ang):
----------------------------------------
   Tot   -0.007422   -0.015390   -0.000000
----------------------------------------
   Max    0.337993
   Res    0.140621    sqrt( Sum f_i^2 / 3N )
----------------------------------------
   Max    0.337993    constrained

Stress-tensor-Voigt (kbar):        0.19        0.39        0.00       -0.02       -0.00       -0.00
(Free)E + p*V (eV/cell)    -1516.6780
Target enthalpy (eV/cell)    -1515.7111

                     ====================================
                        Begin FIRE opt. move =     12
                     ====================================

outcoor: Atomic coordinates (Ang):                          
    2.19103455    1.09853571   -0.00000000   1       1  C.gga
    3.41032273    1.80791292    0.00000000   1       2  C.gga
    3.43438246    3.21764413    0.00000000   1       3  C.gga
    2.21328630    3.94931430    0.00000000   1       4  C.gga
    0.98537685    3.23879612    0.00000000   1       5  C.gga
    0.97574876    1.82604529    0.00000000   1       6  C.gga
    1.42911362    5.72545591   -0.00000000   2       7  H.gga
    2.17863789   -0.01198141    0.00000000   2       8  H.gga
    4.36940945    1.24510573    0.00000000   2       9  H.gga
    4.39503827    3.76367762   -0.00000000   2      10  H.gga
    0.01826118    3.80146916    0.00000000   2      11  H.gga
    0.00608351    1.27998850   -0.00000000   2      12  H.gga
    2.31362871    5.32573609    0.00000000   3      13  O.gga

outcell: Unit cell vectors (Ang):
       20.000000    0.000000    0.000000
        0.000000   20.000000    0.000000
        0.000000    0.000000   20.000000

outcell: Cell vector modules (Ang)   :   20.000000   20.000000   20.000000
outcell: Cell angles (23,13,12) (deg):     90.0000     90.0000     90.0000
outcell: Cell volume (Ang**3)        :   8000.0000
<dSpData1D:S at geom step 12
  <sparsity:sparsity for geom step 12
    nrows_g=121 nrows=121 sparsity=.9980 nnzs=14611, refcount: 7>
  <dData1D:(new from dSpData1D) n=14611, refcount: 1>
refcount: 1>
new_DM -- step:    13
Re-using DM from previous geometries...
Number of DMs in history: 1
 DM extrapolation coefficients: 
1   1.00000
New DM after history re-use:
<dSpData2D:SpM extrapolated using coords
  <sparsity:sparsity for geom step 12
    nrows_g=121 nrows=121 sparsity=.9980 nnzs=14611, refcount: 8>
  <dData2D:(temp array for extrapolation) n=14611 m=1, refcount: 1>
refcount: 1>
No. of atoms with KB's overlaping orbs in proc 0. Max # of overlaps:      13     117
New grid distribution:   1
           1       1:  108    1:  108    1:  108

InitMesh: MESH =   216 x   216 x   216 =    10077696
InitMesh: (bp) =   108 x   108 x   108 =     1259712
InitMesh: Mesh cutoff (required, used) =   300.000   322.366 Ry
ExtMesh (bp) on 0 =   188 x   188 x   188 =     6644672
PhiOnMesh: Number of (b)points on node 0 =              1259712
PhiOnMesh: nlist on node 0 =              2631329

        iscf     Eharris(eV)        E_KS(eV)     FreeEng(eV)     dDmax    Ef(eV) dHmax(eV)
   scf:    1    -1515.611373    -1515.711656    -1515.711656  0.011508 -3.091938  0.105871
   scf:    2    -1515.692212    -1515.706239    -1515.706239  0.009591 -3.167230  0.277965
   scf:    3    -1515.714204    -1515.712529    -1515.712529  0.006797 -3.112887  0.006379
   scf:    4    -1515.712535    -1515.712532    -1515.712532  0.000215 -3.113469  0.003813
   scf:    5    -1515.712535    -1515.712534    -1515.712534  0.000322 -3.114408  0.000862
   scf:    6    -1515.712534    -1515.712534    -1515.712534  0.000030 -3.114524  0.000461

SCF Convergence by DM+H criterion
max |DM_out - DM_in|         :     0.0000296770
max |H_out - H_in|      (eV) :     0.0004612623
SCF cycle converged after 6 iterations

Using DM_out to compute the final energy and forces
No. of atoms with KB's overlaping orbs in proc 0. Max # of overlaps:      13     117

siesta: E_KS(eV) =            -1515.7125

siesta: Atomic forces (eV/Ang):
----------------------------------------
   Tot   -0.015369    0.000436    0.000000
----------------------------------------
   Max    0.364702
   Res    0.152428    sqrt( Sum f_i^2 / 3N )
----------------------------------------
   Max    0.364702    constrained

Stress-tensor-Voigt (kbar):        0.13        0.30        0.00       -0.04       -0.00        0.00
(Free)E + p*V (eV/cell)    -1516.4314
Target enthalpy (eV/cell)    -1515.7125

                     ====================================
                        Begin FIRE opt. move =     13
                     ====================================

outcoor: Atomic coordinates (Ang):                          
    2.19032513    1.09982025   -0.00000000   1       1  C.gga
    3.41003691    1.80795499    0.00000000   1       2  C.gga
    3.43481748    3.21678864    0.00000000   1       3  C.gga
    2.21624148    3.94784614   -0.00000000   1       4  C.gga
    0.98748889    3.24100693    0.00000000   1       5  C.gga
    0.97638039    1.82815866   -0.00000000   1       6  C.gga
    1.42953567    5.72464154   -0.00000000   2       7  H.gga
    2.17887028   -0.01102552   -0.00000000   2       8  H.gga
    4.36809354    1.24681288    0.00000000   2       9  H.gga
    4.39266606    3.76373107    0.00000000   2      10  H.gga
    0.01846885    3.80089197    0.00000000   2      11  H.gga
    0.00661035    1.28042092   -0.00000000   2      12  H.gga
    2.31087424    5.32037952    0.00000000   3      13  O.gga

outcell: Unit cell vectors (Ang):
       20.000000    0.000000    0.000000
        0.000000   20.000000    0.000000
        0.000000    0.000000   20.000000

outcell: Cell vector modules (Ang)   :   20.000000   20.000000   20.000000
outcell: Cell angles (23,13,12) (deg):     90.0000     90.0000     90.0000
outcell: Cell volume (Ang**3)        :   8000.0000
<dSpData1D:S at geom step 13
  <sparsity:sparsity for geom step 13
    nrows_g=121 nrows=121 sparsity=.9980 nnzs=14611, refcount: 7>
  <dData1D:(new from dSpData1D) n=14611, refcount: 1>
refcount: 1>
new_DM -- step:    14
Re-using DM from previous geometries...
Number of DMs in history: 1
 DM extrapolation coefficients: 
1   1.00000
New DM after history re-use:
<dSpData2D:SpM extrapolated using coords
  <sparsity:sparsity for geom step 13
    nrows_g=121 nrows=121 sparsity=.9980 nnzs=14611, refcount: 8>
  <dData2D:(temp array for extrapolation) n=14611 m=1, refcount: 1>
refcount: 1>
No. of atoms with KB's overlaping orbs in proc 0. Max # of overlaps:      13     117
New grid distribution:   1
           1       1:  108    1:  108    1:  108

InitMesh: MESH =   216 x   216 x   216 =    10077696
InitMesh: (bp) =   108 x   108 x   108 =     1259712
InitMesh: Mesh cutoff (required, used) =   300.000   322.366 Ry
ExtMesh (bp) on 0 =   188 x   188 x   188 =     6644672
PhiOnMesh: Number of (b)points on node 0 =              1259712
PhiOnMesh: nlist on node 0 =              2631304

        iscf     Eharris(eV)        E_KS(eV)     FreeEng(eV)     dDmax    Ef(eV) dHmax(eV)
   scf:    1    -1515.629859    -1515.712609    -1515.712609  0.009771 -3.128612  0.088196
   scf:    2    -1515.699246    -1515.708899    -1515.708899  0.005809 -3.170379  0.231034
   scf:    3    -1515.714383    -1515.713227    -1515.713227  0.004174 -3.139225  0.005664
   scf:    4    -1515.713231    -1515.713229    -1515.713229  0.000153 -3.139210  0.003486
   scf:    5    -1515.713231    -1515.713230    -1515.713230  0.000206 -3.139380  0.000935
   scf:    6    -1515.713231    -1515.713231    -1515.713231  0.000022 -3.139478  0.000465

SCF Convergence by DM+H criterion
max |DM_out - DM_in|         :     0.0000219830
max |H_out - H_in|      (eV) :     0.0004651547
SCF cycle converged after 6 iterations

Using DM_out to compute the final energy and forces
No. of atoms with KB's overlaping orbs in proc 0. Max # of overlaps:      13     117

siesta: E_KS(eV) =            -1515.7132

siesta: Atomic forces (eV/Ang):
----------------------------------------
   Tot   -0.021403    0.012453   -0.000000
----------------------------------------
   Max    0.381820
   Res    0.152802    sqrt( Sum f_i^2 / 3N )
----------------------------------------
   Max    0.381820    constrained

Stress-tensor-Voigt (kbar):        0.07        0.22        0.00       -0.05       -0.00        0.00
(Free)E + p*V (eV/cell)    -1516.2006
Target enthalpy (eV/cell)    -1515.7132

[...]
    2.21509397    3.94060521   -0.00000002   1       4  C.gga
    0.98325724    3.24531193   -0.00000001   1       5  C.gga
    0.97432052    1.83551385    0.00000000   1       6  C.gga
    1.37309897    5.66995460    0.00000003   2       7  H.gga
    2.17423181    0.00521620   -0.00000000   2       8  H.gga
    4.36740302    1.25709764    0.00000000   2       9  H.gga
    4.38889627    3.78473012   -0.00000000   2      10  H.gga
    0.03092681    3.81493813   -0.00000001   2      11  H.gga
    0.00442931    1.29949616   -0.00000000   2      12  H.gga
    2.28479025    5.31907292   -0.00000006   3      13  O.gga

outcell: Unit cell vectors (Ang):
       20.000000    0.000000    0.000000
        0.000000   20.000000    0.000000
        0.000000    0.000000   20.000000

outcell: Cell vector modules (Ang)   :   20.000000   20.000000   20.000000
outcell: Cell angles (23,13,12) (deg):     90.0000     90.0000     90.0000
outcell: Cell volume (Ang**3)        :   8000.0000
<dSpData1D:S at geom step 113
  <sparsity:sparsity for geom step 113
    nrows_g=121 nrows=121 sparsity=.9980 nnzs=14611, refcount: 7>
  <dData1D:(new from dSpData1D) n=14611, refcount: 1>
refcount: 1>
new_DM -- step:   114
Re-using DM from previous geometries...
Number of DMs in history: 1
 DM extrapolation coefficients: 
1   1.00000
New DM after history re-use:
<dSpData2D:SpM extrapolated using coords
  <sparsity:sparsity for geom step 113
    nrows_g=121 nrows=121 sparsity=.9980 nnzs=14611, refcount: 8>
  <dData2D:(temp array for extrapolation) n=14611 m=1, refcount: 1>
refcount: 1>
No. of atoms with KB's overlaping orbs in proc 0. Max # of overlaps:      13     117
New grid distribution:   1
           1       1:  108    1:  108    1:  108

InitMesh: MESH =   216 x   216 x   216 =    10077696
InitMesh: (bp) =   108 x   108 x   108 =     1259712
InitMesh: Mesh cutoff (required, used) =   300.000   322.366 Ry
ExtMesh (bp) on 0 =   188 x   188 x   188 =     6644672
PhiOnMesh: Number of (b)points on node 0 =              1259712
PhiOnMesh: nlist on node 0 =              2631438

        iscf     Eharris(eV)        E_KS(eV)     FreeEng(eV)     dDmax    Ef(eV) dHmax(eV)
   scf:    1    -1515.727796    -1515.727538    -1515.727538  0.000076 -3.091220  0.000155

SCF Convergence by DM+H criterion
max |DM_out - DM_in|         :     0.0000760008
max |H_out - H_in|      (eV) :     0.0001546647
SCF cycle converged after 1 iterations

Using DM_out to compute the final energy and forces
No. of atoms with KB's overlaping orbs in proc 0. Max # of overlaps:      13     117

siesta: E_KS(eV) =            -1515.7275

siesta: Atomic forces (eV/Ang):
----------------------------------------
   Tot   -0.035250    0.015435   -0.000000
----------------------------------------
   Max    0.030360
   Res    0.009128    sqrt( Sum f_i^2 / 3N )
----------------------------------------
   Max    0.030360    constrained

Stress-tensor-Voigt (kbar):       -0.00        0.01        0.00       -0.00       -0.00        0.00
(Free)E + p*V (eV/cell)    -1515.7530
Target enthalpy (eV/cell)    -1515.7275

                     ====================================
                        Begin FIRE opt. move =    114
                     ====================================

outcoor: Atomic coordinates (Ang):                          
    2.18490300    1.11219724   -0.00000000   1       1  C.gga
    3.41010138    1.81511664   -0.00000000   1       2  C.gga
    3.43476422    3.22328525   -0.00000001   1       3  C.gga
    2.21505147    3.94063693   -0.00000002   1       4  C.gga
    0.98326164    3.24533048   -0.00000001   1       5  C.gga
    0.97424774    1.83550559    0.00000000   1       6  C.gga
    1.37305591    5.66996912    0.00000003   2       7  H.gga
    2.17423637    0.00523498   -0.00000000   2       8  H.gga
    4.36740204    1.25711108    0.00000000   2       9  H.gga
    4.38887880    3.78473555   -0.00000000   2      10  H.gga
    0.03091126    3.81492696   -0.00000001   2      11  H.gga
    0.00445237    1.29949889   -0.00000000   2      12  H.gga
    2.28483181    5.31903915   -0.00000006   3      13  O.gga

outcell: Unit cell vectors (Ang):
       20.000000    0.000000    0.000000
        0.000000   20.000000    0.000000
        0.000000    0.000000   20.000000

outcell: Cell vector modules (Ang)   :   20.000000   20.000000   20.000000
outcell: Cell angles (23,13,12) (deg):     90.0000     90.0000     90.0000
outcell: Cell volume (Ang**3)        :   8000.0000
<dSpData1D:S at geom step 114
  <sparsity:sparsity for geom step 114
    nrows_g=121 nrows=121 sparsity=.9980 nnzs=14611, refcount: 7>
  <dData1D:(new from dSpData1D) n=14611, refcount: 1>
refcount: 1>
new_DM -- step:   115
Re-using DM from previous geometries...
Number of DMs in history: 1
 DM extrapolation coefficients: 
1   1.00000
New DM after history re-use:
<dSpData2D:SpM extrapolated using coords
  <sparsity:sparsity for geom step 114
    nrows_g=121 nrows=121 sparsity=.9980 nnzs=14611, refcount: 8>
  <dData2D:(temp array for extrapolation) n=14611 m=1, refcount: 1>
refcount: 1>
No. of atoms with KB's overlaping orbs in proc 0. Max # of overlaps:      13     117
New grid distribution:   1
           1       1:  108    1:  108    1:  108

InitMesh: MESH =   216 x   216 x   216 =    10077696
InitMesh: (bp) =   108 x   108 x   108 =     1259712
InitMesh: Mesh cutoff (required, used) =   300.000   322.366 Ry
ExtMesh (bp) on 0 =   188 x   188 x   188 =     6644672
PhiOnMesh: Number of (b)points on node 0 =              1259712
PhiOnMesh: nlist on node 0 =              2631445

        iscf     Eharris(eV)        E_KS(eV)     FreeEng(eV)     dDmax    Ef(eV) dHmax(eV)
   scf:    1    -1515.727890    -1515.727545    -1515.727545  0.000085 -3.091527  0.000495

SCF Convergence by DM+H criterion
max |DM_out - DM_in|         :     0.0000854729
max |H_out - H_in|      (eV) :     0.0004951510
SCF cycle converged after 1 iterations

Using DM_out to compute the final energy and forces
No. of atoms with KB's overlaping orbs in proc 0. Max # of overlaps:      13     117

siesta: E_KS(eV) =            -1515.7275

siesta: Atomic forces (eV/Ang):
----------------------------------------
   Tot   -0.035370    0.015293   -0.000000
----------------------------------------
   Max    0.023078
   Res    0.007062    sqrt( Sum f_i^2 / 3N )
----------------------------------------
   Max    0.023078    constrained

Stress-tensor-Voigt (kbar):       -0.00        0.01        0.00       -0.01        0.00        0.00
(Free)E + p*V (eV/cell)    -1515.7539
Target enthalpy (eV/cell)    -1515.7275

                     ====================================
                        Begin FIRE opt. move =    115
                     ====================================

outcoor: Atomic coordinates (Ang):                          
    2.18495643    1.11216441   -0.00000000   1       1  C.gga
    3.41008537    1.81512005   -0.00000000   1       2  C.gga
    3.43478246    3.22329142   -0.00000001   1       3  C.gga
    2.21500038    3.94067547   -0.00000002   1       4  C.gga
    0.98326461    3.24535304   -0.00000001   1       5  C.gga
    0.97416040    1.83549502    0.00000000   1       6  C.gga
    1.37300367    5.66998686    0.00000003   2       7  H.gga
    2.17424282    0.00525807   -0.00000000   2       8  H.gga
    4.36740055    1.25712911    0.00000000   2       9  H.gga
    4.38885657    3.78474334   -0.00000000   2      10  H.gga
    0.03089049    3.81491235   -0.00000001   2      11  H.gga
    0.00447979    1.29950093   -0.00000000   2      12  H.gga
    2.28488099    5.31899868   -0.00000006   3      13  O.gga

outcell: Unit cell vectors (Ang):
       20.000000    0.000000    0.000000
        0.000000   20.000000    0.000000
        0.000000    0.000000   20.000000

outcell: Cell vector modules (Ang)   :   20.000000   20.000000   20.000000
outcell: Cell angles (23,13,12) (deg):     90.0000     90.0000     90.0000
outcell: Cell volume (Ang**3)        :   8000.0000
<dSpData1D:S at geom step 115
  <sparsity:sparsity for geom step 115
    nrows_g=121 nrows=121 sparsity=.9980 nnzs=14611, refcount: 7>
  <dData1D:(new from dSpData1D) n=14611, refcount: 1>
refcount: 1>
new_DM -- step:   116
Re-using DM from previous geometries...
Number of DMs in history: 1
 DM extrapolation coefficients: 
1   1.00000
New DM after history re-use:
<dSpData2D:SpM extrapolated using coords
  <sparsity:sparsity for geom step 115
    nrows_g=121 nrows=121 sparsity=.9980 nnzs=14611, refcount: 8>
  <dData2D:(temp array for extrapolation) n=14611 m=1, refcount: 1>
refcount: 1>
No. of atoms with KB's overlaping orbs in proc 0. Max # of overlaps:      13     117
New grid distribution:   1
           1       1:  108    1:  108    1:  108

InitMesh: MESH =   216 x   216 x   216 =    10077696
InitMesh: (bp) =   108 x   108 x   108 =     1259712
InitMesh: Mesh cutoff (required, used) =   300.000   322.366 Ry
ExtMesh (bp) on 0 =   188 x   188 x   188 =     6644672
PhiOnMesh: Number of (b)points on node 0 =              1259712
PhiOnMesh: nlist on node 0 =              2631450

        iscf     Eharris(eV)        E_KS(eV)     FreeEng(eV)     dDmax    Ef(eV) dHmax(eV)
   scf:    1    -1515.727962    -1515.727550    -1515.727550  0.000114 -3.092092  0.000980
   scf:    2    -1515.727550    -1515.727550    -1515.727550  0.000080 -3.091506  0.002405
   scf:    3    -1515.727551    -1515.727550    -1515.727550  0.000056 -3.091925  0.000124

SCF Convergence by DM+H criterion
max |DM_out - DM_in|         :     0.0000564376
max |H_out - H_in|      (eV) :     0.0001243165
SCF cycle converged after 3 iterations

Using DM_out to compute the final energy and forces
No. of atoms with KB's overlaping orbs in proc 0. Max # of overlaps:      13     117

siesta: E_KS(eV) =            -1515.7276

siesta: Atomic forces (eV/Ang):
----------------------------------------
   Tot   -0.035556    0.015210    0.000000
----------------------------------------
   Max    0.013930
   Res    0.004629    sqrt( Sum f_i^2 / 3N )
----------------------------------------
   Max    0.013930    constrained

Stress-tensor-Voigt (kbar):       -0.00        0.01        0.00       -0.01        0.00        0.00
(Free)E + p*V (eV/cell)    -1515.7561
Target enthalpy (eV/cell)    -1515.7276

                     ====================================
                        Begin FIRE opt. move =    116
                     ====================================

outcoor: Atomic coordinates (Ang):                          
    2.18501279    1.11212927   -0.00000000   1       1  C.gga
    3.41006836    1.81512583   -0.00000000   1       2  C.gga
    3.43479791    3.22330031   -0.00000001   1       3  C.gga
    2.21494331    3.94071848   -0.00000002   1       4  C.gga
    0.98326320    3.24537840   -0.00000001   1       5  C.gga
    0.97406377    1.83548226    0.00000000   1       6  C.gga
    1.37294486    5.67000722    0.00000003   2       7  H.gga
    2.17425202    0.00528479   -0.00000000   2       8  H.gga
    4.36739838    1.25715311    0.00000000   2       9  H.gga
    4.38882920    3.78475465   -0.00000000   2      10  H.gga
    0.03086305    3.81489359   -0.00000001   2      11  H.gga
    0.00450964    1.29950061   -0.00000000   2      12  H.gga
    2.28493371    5.31895427   -0.00000006   3      13  O.gga

outcell: Unit cell vectors (Ang):
       20.000000    0.000000    0.000000
        0.000000   20.000000    0.000000
        0.000000    0.000000   20.000000

outcell: Cell vector modules (Ang)   :   20.000000   20.000000   20.000000
outcell: Cell angles (23,13,12) (deg):     90.0000     90.0000     90.0000
outcell: Cell volume (Ang**3)        :   8000.0000
<dSpData1D:S at geom step 116
  <sparsity:sparsity for geom step 116
    nrows_g=121 nrows=121 sparsity=.9980 nnzs=14611, refcount: 7>
  <dData1D:(new from dSpData1D) n=14611, refcount: 1>
refcount: 1>
new_DM -- step:   117
Re-using DM from previous geometries...
Number of DMs in history: 1
 DM extrapolation coefficients: 
1   1.00000
New DM after history re-use:
<dSpData2D:SpM extrapolated using coords
  <sparsity:sparsity for geom step 116
    nrows_g=121 nrows=121 sparsity=.9980 nnzs=14611, refcount: 8>
  <dData2D:(temp array for extrapolation) n=14611 m=1, refcount: 1>
refcount: 1>
No. of atoms with KB's overlaping orbs in proc 0. Max # of overlaps:      13     117
New grid distribution:   1
           1       1:  108    1:  108    1:  108

InitMesh: MESH =   216 x   216 x   216 =    10077696
InitMesh: (bp) =   108 x   108 x   108 =     1259712
InitMesh: Mesh cutoff (required, used) =   300.000   322.366 Ry
ExtMesh (bp) on 0 =   188 x   188 x   188 =     6644672
PhiOnMesh: Number of (b)points on node 0 =              1259712
PhiOnMesh: nlist on node 0 =              2631424

        iscf     Eharris(eV)        E_KS(eV)     FreeEng(eV)     dDmax    Ef(eV) dHmax(eV)
   scf:    1    -1515.728006    -1515.727554    -1515.727554  0.000114 -3.092405  0.000664
   scf:    2    -1515.727554    -1515.727554    -1515.727554  0.000041 -3.092406  0.001039
   scf:    3    -1515.727554    -1515.727554    -1515.727554  0.000029 -3.092373  0.000157

SCF Convergence by DM+H criterion
max |DM_out - DM_in|         :     0.0000287479
max |H_out - H_in|      (eV) :     0.0001565625
SCF cycle converged after 3 iterations

Using DM_out to compute the final energy and forces
No. of atoms with KB's overlaping orbs in proc 0. Max # of overlaps:      13     117

siesta: E_KS(eV) =            -1515.7276

siesta: Atomic forces (eV/Ang):
----------------------------------------
   Tot   -0.035650    0.015267   -0.000000
----------------------------------------
   Max    0.007684
   Res    0.003092    sqrt( Sum f_i^2 / 3N )
----------------------------------------
   Max    0.007684    constrained

Stress-tensor-Voigt (kbar):       -0.00        0.01        0.00       -0.01       -0.00        0.00
(Free)E + p*V (eV/cell)    -1515.7576
Target enthalpy (eV/cell)    -1515.7276

outcoor: Relaxed atomic coordinates (Ang):                  
    2.18501279    1.11212927   -0.00000000   1       1  C.gga
    3.41006836    1.81512583   -0.00000000   1       2  C.gga
    3.43479791    3.22330031   -0.00000001   1       3  C.gga
    2.21494331    3.94071848   -0.00000002   1       4  C.gga
    0.98326320    3.24537840   -0.00000001   1       5  C.gga
    0.97406377    1.83548226    0.00000000   1       6  C.gga
    1.37294486    5.67000722    0.00000003   2       7  H.gga
    2.17425202    0.00528479   -0.00000000   2       8  H.gga
    4.36739838    1.25715311    0.00000000   2       9  H.gga
    4.38882920    3.78475465   -0.00000000   2      10  H.gga
    0.03086305    3.81489359   -0.00000001   2      11  H.gga
    0.00450964    1.29950061   -0.00000000   2      12  H.gga
    2.28493371    5.31895427   -0.00000006   3      13  O.gga

coxmol: Writing XMOL coordinates into file Phenol.xyz                                                          

siesta: Program's energy decomposition (eV):
siesta: Ebs     =      -459.029124
siesta: Eions   =      2250.705553
siesta: Ena     =       437.881500
siesta: Ekin    =      1024.183330
siesta: Enl     =      -188.593058
siesta: Eso     =         0.000000
siesta: Eldau   =         0.000000
siesta: DEna    =       -44.898259
siesta: DUscf   =         5.317699
siesta: DUext   =         0.000000
siesta: Exc     =      -498.913213
siesta: eta*DQ  =         0.000000
siesta: Emadel  =         0.000000
siesta: Emeta   =         0.000000
siesta: Emolmec =         0.000000
siesta: Ekinion =         0.000000
siesta: Eharris =     -1515.727554
siesta: Etot    =     -1515.727554
siesta: FreeEng =     -1515.727554

siesta: Final energy (eV):
siesta:  Band Struct. =    -459.029124
siesta:       Kinetic =    1024.183330
siesta:       Hartree =    3565.355797
siesta:       Eldau   =       0.000000
siesta:       Eso     =       0.000000
siesta:    Ext. field =       0.000000
siesta:   Exch.-corr. =    -498.913213
siesta:  Ion-electron =   -8042.429978
siesta:       Ion-ion =    2436.076510
siesta:       Ekinion =       0.000000
siesta:         Total =   -1515.727554
siesta:         Fermi =      -3.092373

siesta: Stress tensor (static) (eV/Ang**3):
siesta:    -0.000000   -0.000005    0.000000
siesta:    -0.000005    0.000008    0.000000
siesta:     0.000000   -0.000000    0.000003

siesta: Cell volume =       8000.000000 Ang**3

siesta: Pressure (static):
siesta:                Solid            Molecule  Units
siesta:          -0.00000004         -0.00000004  Ry/Bohr**3
siesta:          -0.00000375         -0.00000384  eV/Ang**3
siesta:          -0.00601008         -0.00614513  kBar
(Free)E+ p_basis*V_orbitals  =       -1508.493829
(Free)Eharris+ p_basis*V_orbitals  =       -1508.493829

siesta: Electric dipole (a.u.)  =   -0.453896    0.073471    0.000000
siesta: Electric dipole (Debye) =   -1.153689    0.186744    0.000000

timer: Elapsed wall time (sec) =    2434.973
timer: CPU execution times (sec):

Routine            Calls   Time/call    Tot.time        %
siesta                 1    2434.973    2434.973   100.00
Setup                  1       0.318       0.318     0.01
bands                  1       0.000       0.000     0.00
KSV_init               1       0.000       0.000     0.00
IterGeom             117      20.809    2434.635    99.99
state_init           117       0.011       1.310     0.05
hsparse              117       0.001       0.074     0.00
overlap              117       0.009       1.040     0.04
Setup_H0             117       2.998     350.754    14.40
naefs                234       0.000       0.018     0.00
MolMec               234       0.000       0.000     0.00
kinefsm              234       0.007       1.621     0.07
nlefsm               234       0.038       8.931     0.37
DHSCF_Init           117       2.953     345.513    14.19
DHSCF1               117       0.082       9.623     0.40
INITMESH             117       0.000       0.001     0.00
DHSCF2               117       2.871     335.890    13.79
REMESH               117       0.098      11.445     0.47
REORD               3185       0.016      52.290     2.15
PHION                117       1.690     197.715     8.12
COMM_BSC            1781       0.017      30.029     1.23
POISON               832       0.753     626.292    25.72
fft                 1664       0.296     491.744    20.20
IterSCF              481       3.011    1448.524    59.49
setup_H              598       2.415    1444.330    59.32
DHSCF                715       2.885    2062.685    84.71
DHSCF3               715       2.402    1717.347    70.53
rhoofd               715       0.342     244.266    10.03
CellXC               715       0.882     630.960    25.91
cellXC               715       0.882     630.952    25.91
vmat                 715       0.217     154.859     6.36
compute_dm           481       0.006       2.996     0.12
diagon               481       0.005       2.598     0.11
r-eigvec             481       0.005       2.294     0.09
r-buildHS            481       0.000       0.036     0.00
rdiag                481       0.005       2.256     0.09
rdiag1               481       0.000       0.135     0.01
rdiag2               481       0.001       0.320     0.01
rdiag3               481       0.003       1.529     0.06
rdiag4               481       0.001       0.264     0.01
r-buildD             481       0.000       0.231     0.01
MIXER                364       0.000       0.145     0.01
PostSCF              117       5.413     633.355    26.01
DHSCF4               117       2.952     345.337    14.18
dfscf                117       2.476     289.682    11.90
overfsm              117       0.005       0.535     0.02
state_analysis       117       0.002       0.285     0.01
siesta_move          117       0.001       0.125     0.01
Analysis               1       0.004       0.004     0.00
optical                1       0.000       0.000     0.00
  
>> End of run:  22-MAR-2019  15:53:14
Job completed
