
                           ***********************       
                           *  WELCOME TO SIESTA  *       
                           ***********************       

reinit: Reading from input.fdf

reinit: -----------------------------------------------------------------------
reinit: System Name: 
reinit: -----------------------------------------------------------------------
reinit: System Label: LiCoronene
reinit: -----------------------------------------------------------------------
Siesta Version: siesta-4.1--736
Architecture  : unknown
Compiler flags: gfortran -O3 -fPIC -ftree-vectorize -fopenmp
PP flags      : -DFC_HAVE_ABORT
Libraries     : -L/usr/local/opt/openblas/lib -lopenblas -fopenmp
SERIAL version

* Running in serial mode
* Running 4 OpenMP threads.
* Running 4 processes.
* OpenMP version 201511
* OpenMP runtime schedule DYNAMIC, chunks 1
** OpenMP runtime schedule DYNAMIC, chunks 32
>> Start of run:  23-AUG-2019   2:14:39

initatom: Reading input for the pseudopotentials and atomic orbitals ----------
Species number:   1 Atomic number:    6 Label: C.gga
Species number:   2 Atomic number:    1 Label: H.gga

Ground state valence configuration:   2s02  2p02
Reading pseudopotential information in formatted form from C.gga.psf

Valence configuration for pseudopotential generation:
2s( 2.00) rc: 1.54
2p( 2.00) rc: 1.54
3d( 0.00) rc: 1.54
4f( 0.00) rc: 1.54
Ground state valence configuration:   1s01
Reading pseudopotential information in formatted form from H.gga.psf

Valence configuration for pseudopotential generation:
1s( 1.00) rc: 1.31
2p( 0.00) rc: 1.31
3d( 0.00) rc: 0.37
4f( 0.00) rc: 1.31
For C.gga, standard SIESTA heuristics set lmxkb to 3
 (one more than the basis l, including polarization orbitals).
Use PS.lmax or PS.KBprojectors blocks to override.
For H.gga, standard SIESTA heuristics set lmxkb to 2
 (one more than the basis l, including polarization orbitals).
Use PS.lmax or PS.KBprojectors blocks to override.

<basis_specs>
===============================================================================
C.gga                Z=   6    Mass=  12.010        Charge= 0.17977+309
Lmxo=1 Lmxkb= 3    BasisType=split      Semic=F
L=0  Nsemic=0  Cnfigmx=2
          n=1  nzeta=2  polorb=0
            splnorm:   0.15000    
               vcte:    0.0000    
               rinn:    0.0000    
               qcoe:    0.0000    
               qyuk:    0.0000    
               qwid:   0.10000E-01
                rcs:    0.0000      0.0000    
            lambdas:    1.0000      1.0000    
L=1  Nsemic=0  Cnfigmx=2
          n=1  nzeta=2  polorb=1
            splnorm:   0.15000    
               vcte:    0.0000    
               rinn:    0.0000    
               qcoe:    0.0000    
               qyuk:    0.0000    
               qwid:   0.10000E-01
                rcs:    0.0000      0.0000    
            lambdas:    1.0000      1.0000    
-------------------------------------------------------------------------------
L=0  Nkbl=1  erefs: 0.17977+309
L=1  Nkbl=1  erefs: 0.17977+309
L=2  Nkbl=1  erefs: 0.17977+309
L=3  Nkbl=1  erefs: 0.17977+309
===============================================================================
</basis_specs>

atom: Called for C.gga                 (Z =   6)

read_vps: Pseudopotential generation method:
read_vps: ATM3      Troullier-Martins                       
Total valence charge:    4.00000

read_vps: Pseudopotential includes a core correction:
read_vps: Pseudo-core for xc-correction

xc_check: Exchange-correlation functional:
xc_check: GGA Perdew, Burke & Ernzerhof 1996
V l=0 = -2*Zval/r beyond r=  1.5227
V l=1 = -2*Zval/r beyond r=  1.5227
V l=2 = -2*Zval/r beyond r=  1.5227
V l=3 = -2*Zval/r beyond r=  1.5038
All V_l potentials equal beyond r=  1.5227
This should be close to max(r_c) in ps generation
All pots = -2*Zval/r beyond r=  1.5227

VLOCAL1: 99.0% of the norm of Vloc inside     18.722 Ry
VLOCAL1: 99.9% of the norm of Vloc inside     42.668 Ry
atom: Maximum radius for 4*pi*r*r*local-pseudopot. charge    1.83678
atom: Maximum radius for r*vlocal+2*Zval:    1.58088
GHOST: No ghost state for L =  0
GHOST: No ghost state for L =  1
GHOST: No ghost state for L =  2
GHOST: No ghost state for L =  3

KBgen: Kleinman-Bylander projectors: 
   l= 0   rc=  1.704034   el= -1.009801   Ekb=  5.335044   kbcos=  0.316824
   l= 1   rc=  1.704034   el= -0.388707   Ekb= -3.785862   kbcos= -0.366464
   l= 2   rc=  1.791422   el=  0.001971   Ekb= -0.970471   kbcos= -0.009212
   l= 3   rc=  1.859892   el=  0.003065   Ekb= -0.399525   kbcos= -0.001223

KBgen: Total number of  Kleinman-Bylander projectors:   16
atom: -------------------------------------------------------------------------

atom: SANKEY-TYPE ORBITALS:
atom: Selected multiple-zeta basis: split     

SPLIT: Orbitals with angular momentum L= 0

SPLIT: Basis orbitals for state 2s

SPLIT: PAO cut-off radius determined from an
SPLIT: energy shift=  0.002205 Ry

   izeta = 1
                 lambda =    1.000000
                     rc =    5.382558
                 energy =   -1.007983
                kinetic =    0.829025
    potential(screened) =   -1.837009
       potential(ionic) =   -5.376592

   izeta = 2
                 rmatch =    3.475094
              splitnorm =    0.150000
                 energy =   -0.876935
                kinetic =    1.279964
    potential(screened) =   -2.156899
       potential(ionic) =   -5.943761

SPLIT: Orbitals with angular momentum L= 1

SPLIT: Basis orbitals for state 2p

SPLIT: PAO cut-off radius determined from an
SPLIT: energy shift=  0.002205 Ry

   izeta = 1
                 lambda =    1.000000
                     rc =    6.740804
                 energy =   -0.386704
                kinetic =    2.327316
    potential(screened) =   -2.714020
       potential(ionic) =   -6.100339

   izeta = 2
                 rmatch =    3.792903
              splitnorm =    0.150000
                 energy =   -0.270625
                kinetic =    3.420974
    potential(screened) =   -3.691599
       potential(ionic) =   -7.453004

POLgen: Perturbative polarization orbital with L=  2

POLgen: Polarization orbital for state 2p

   izeta = 1
                     rc =    6.740804
                 energy =    0.975645
                kinetic =    2.058046
    potential(screened) =   -1.082401
       potential(ionic) =   -3.782952
atom: Total number of Sankey-type orbitals: 13

atm_pop: Valence configuration (for local Pseudopot. screening):
 2s( 2.00)                                                            
 2p( 2.00)                                                            
Vna: chval, zval:    4.00000   4.00000

Vna:  Cut-off radius for the neutral-atom potential:   6.740804
comcore: Pseudo-core radius Rcore=  1.791422

atom: _________________________________________________________________________

<basis_specs>
===============================================================================
H.gga                Z=   1    Mass=  1.0100        Charge= 0.17977+309
Lmxo=0 Lmxkb= 2    BasisType=split      Semic=F
L=0  Nsemic=0  Cnfigmx=1
          n=1  nzeta=2  polorb=1
            splnorm:   0.15000    
               vcte:    0.0000    
               rinn:    0.0000    
               qcoe:    0.0000    
               qyuk:    0.0000    
               qwid:   0.10000E-01
                rcs:    0.0000      0.0000    
            lambdas:    1.0000      1.0000    
-------------------------------------------------------------------------------
L=0  Nkbl=1  erefs: 0.17977+309
L=1  Nkbl=1  erefs: 0.17977+309
L=2  Nkbl=1  erefs: 0.17977+309
===============================================================================
</basis_specs>

atom: Called for H.gga                 (Z =   1)

read_vps: Pseudopotential generation method:
read_vps: ATM3      Troullier-Martins                       
Total valence charge:    1.00000

xc_check: Exchange-correlation functional:
xc_check: GGA Perdew, Burke & Ernzerhof 1996
V l=0 = -2*Zval/r beyond r=  1.2977
V l=1 = -2*Zval/r beyond r=  1.2815
V l=2 = -2*Zval/r beyond r=  1.2656
All V_l potentials equal beyond r=  1.2977
This should be close to max(r_c) in ps generation
All pots = -2*Zval/r beyond r=  1.2977

VLOCAL1: 99.0% of the norm of Vloc inside     25.776 Ry
VLOCAL1: 99.9% of the norm of Vloc inside     58.745 Ry
atom: Maximum radius for 4*pi*r*r*local-pseudopot. charge    1.52711
atom: Maximum radius for r*vlocal+2*Zval:    1.28155
GHOST: No ghost state for L =  0
GHOST: No ghost state for L =  1
GHOST: No ghost state for L =  2

KBgen: Kleinman-Bylander projectors: 
   l= 0   rc=  1.434438   el= -0.477200   Ekb= -1.957043   kbcos= -0.361614
   l= 1   rc=  1.508111   el=  0.001076   Ekb= -0.424224   kbcos= -0.025441
   l= 2   rc=  1.527112   el=  0.002010   Ekb= -0.378578   kbcos= -0.002010

KBgen: Total number of  Kleinman-Bylander projectors:    9
atom: -------------------------------------------------------------------------

atom: SANKEY-TYPE ORBITALS:
atom: Selected multiple-zeta basis: split     

SPLIT: Orbitals with angular momentum L= 0

SPLIT: Basis orbitals for state 1s

SPLIT: PAO cut-off radius determined from an
SPLIT: energy shift=  0.002205 Ry

   izeta = 1
                 lambda =    1.000000
                     rc =    6.518340
                 energy =   -0.475328
                kinetic =    0.879188
    potential(screened) =   -1.354517
       potential(ionic) =   -1.873657

   izeta = 2
                 rmatch =    4.103729
              splitnorm =    0.150000
                 energy =   -0.382914
                kinetic =    1.427335
    potential(screened) =   -1.810249
       potential(ionic) =   -2.357086

POLgen: Perturbative polarization orbital with L=  1

POLgen: Polarization orbital for state 1s

   izeta = 1
                     rc =    6.518340
                 energy =    0.536347
                kinetic =    1.136516
    potential(screened) =   -0.600169
       potential(ionic) =   -1.065665
atom: Total number of Sankey-type orbitals:  5

atm_pop: Valence configuration (for local Pseudopot. screening):
 1s( 1.00)                                                            
Vna: chval, zval:    1.00000   1.00000

Vna:  Cut-off radius for the neutral-atom potential:   6.518340

atom: _________________________________________________________________________

prinput: Basis input ----------------------------------------------------------

PAO.BasisType split     

%block ChemicalSpeciesLabel
    1    6 C.gga                   # Species index, atomic number, species label
    2    1 H.gga                   # Species index, atomic number, species label
%endblock ChemicalSpeciesLabel

%block PAO.Basis                 # Define Basis set
C.gga                 2                    # Species label, number of l-shells
 n=2   0   2                         # n, l, Nzeta 
   5.383      3.475   
   1.000      1.000   
 n=2   1   2 P   1                   # n, l, Nzeta, Polarization, NzetaPol
   6.741      3.793   
   1.000      1.000   
H.gga                 1                    # Species label, number of l-shells
 n=1   0   2 P   1                   # n, l, Nzeta, Polarization, NzetaPol
   6.518      4.104   
   1.000      1.000   
%endblock PAO.Basis

prinput: ----------------------------------------------------------------------

coor:   Atomic-coordinates input format  =     Cartesian coordinates
coor:                                          (in Angstroms)

siesta: Atomic coordinates (Bohr) and species
siesta:     20.39275  19.86581  18.92853  1        1
siesta:     20.39275  17.12916  18.92936  1        2
siesta:     18.02289  21.23419  18.92920  1        3
siesta:     22.76627  21.23603  18.93129  1        4
siesta:     18.02275  15.76080  18.93095  1        5
siesta:     15.65295  19.86595  18.92986  1        6
siesta:     22.76617  15.75874  18.93234  1        7
siesta:     18.02284  23.97491  18.93290  1        8
siesta:     25.07536  19.81673  18.91671  1        9
siesta:     22.69152  23.94579  18.91857  1       10
siesta:     25.07532  17.17846  18.91712  1       11
siesta:     15.65285  17.12930  18.93072  1       12
siesta:     20.40705  25.26475  18.91968  1       13
siesta:     18.02258  13.01979  18.93534  1       14
siesta:     13.27954  21.23621  18.93293  1       15
siesta:     22.69123  13.04867  18.92025  1       16
siesta:     15.63876  25.26499  18.91965  1       17
siesta:     13.27940  15.75911  18.93403  1       18
siesta:     20.40665  11.72973  18.92204  1       19
siesta:     13.35432  23.94590  18.91943  1       20
siesta:     15.63846  11.72976  18.92191  1       21
siesta:     10.97019  19.81710  18.91997  1       22
siesta:     13.35405  13.04914  18.92104  1       23
siesta:     10.97009  17.17882  18.92043  1       24
siesta:     26.89095  20.86018  18.89234  2       25
siesta:     24.50317  24.99642  18.89478  2       26
siesta:     26.89095  16.13502  18.89316  2       27
siesta:     20.41148  27.35887  18.89825  2       28
siesta:     24.50288  11.99821  18.89609  2       29
siesta:     15.63448  27.35914  18.89664  2       30
siesta:     20.41064   9.63550  18.90093  2       31
siesta:     11.54254  24.99626  18.89731  2       32
siesta:     15.63423   9.63550  18.89900  2       33
siesta:      9.15486  20.86105  18.89756  2       34
siesta:     11.54213  11.99919  18.89836  2       35
siesta:      9.15467  16.13502  18.89851  2       36

siesta: System type = molecule  

initatomlists: Number of atoms, orbitals, and projectors:     36   372   492

coxmol: Writing XMOL coordinates into file LiCoronene.xyz                                                      

siesta: ******************** Simulation parameters ****************************
siesta:
siesta: The following are some of the parameters of the simulation.
siesta: A complete list of the parameters used, including default values,
siesta: can be found in file out.fdf
siesta:
redata: Spin configuration                          = none
redata: Number of spin components                   = 1
redata: Time-Reversal Symmetry                      = T
redata: Spin-spiral                                 = F
redata: Long output                                 =   F
redata: Number of Atomic Species                    =        2
redata: Charge density info will appear in .RHO file
redata: Write Mulliken Pop.                         = NO
redata: Mesh Cutoff                                 =   300.0000 Ry
redata: Net charge of the system                    =     0.0000 |e|
redata: Min. number of SCF Iter                     =        0
redata: Max. number of SCF Iter                     =     1000
redata: SCF mix quantity                            = Hamiltonian
redata: Mix DM or H after convergence               =   F
redata: Recompute H after scf cycle                 =   F
redata: Mix DM in first SCF step                    =   T
redata: Write Pulay info on disk                    =   F
redata: New DM Mixing Weight                        =     0.2500
redata: New DM Occupancy tolerance                  = 0.000000000001
redata: No kicks to SCF
redata: DM Mixing Weight for Kicks                  =     0.5000
redata: Require Harris convergence for SCF          =   F
redata: Harris energy tolerance for SCF             =     0.000100 eV
redata: Require DM convergence for SCF              =   T
redata: DM tolerance for SCF                        =     0.0001
redata: Require EDM convergence for SCF             =   F
redata: EDM tolerance for SCF                       =     0.001000 eV
redata: Require H convergence for SCF               =   T
redata: Hamiltonian tolerance for SCF               =     0.001000 eV
redata: Require (free) Energy convergence for SCF   =   F
redata: (free) Energy tolerance for SCF             =     0.000100 eV
redata: Using Saved Data (generic)                  =   F
redata: Use continuation files for DM               =   F
redata: Neglect nonoverlap interactions             =   F
redata: Method of Calculation                       = Diagonalization
redata: Divide and Conquer                          =   T
redata: Electronic Temperature                      =   299.9869 K
redata: Fix the spin of the system                  =   F
redata: Dynamics option                             = Single-point calculation
mix.SCF: Pulay mixing                            = Pulay
mix.SCF:    Variant                              = stable
mix.SCF:    History steps                        = 2
mix.SCF:    Linear mixing weight                 =     0.250000
mix.SCF:    Mixing weight                        =     0.250000
mix.SCF:    SVD condition                        = 0.1000E-07
redata: ***********************************************************************

%block SCF.Mixers
  Pulay
%endblock SCF.Mixers

%block SCF.Mixer.Pulay
  # Mixing method
  method pulay
  variant stable

  # Mixing options
  weight 0.2500
  weight.linear 0.2500
  history 2
%endblock SCF.Mixer.Pulay

DM_history_depth set to one: no extrapolation allowed by default for geometry relaxation
Size of DM history Fstack: 1
Total number of electrons:   108.000000
Total ionic charge:   108.000000
 Kpoints in:            1 . Kpoints trimmed:            1

siesta: k-grid: Number of k-points =     1
siesta: k-grid: Cutoff (effective) =    10.000 Ang
siesta: k-grid: Supercell and displacements
siesta: k-grid:    1   0   0      0.000
siesta: k-grid:    0   1   0      0.000
siesta: k-grid:    0   0   1      0.000


                     ====================================
                        Single-point calculation
                     ====================================

outcoor: Atomic coordinates (Ang):                          
   10.79137319   10.51253067   10.01654360   1       1  C.gga
   10.79137193    9.06435809   10.01698394   1       2  C.gga
    9.53729715   11.23664439   10.01689688   1       3  C.gga
   12.04738405   11.23761996   10.01800261   1       4  C.gga
    9.53722392    8.34025159   10.01782596   1       5  C.gga
    8.28318322   10.51260241   10.01724742   1       6  C.gga
   12.04733408    8.33916409   10.01856036   1       7  C.gga
    9.53727377   12.68697132   10.01885455   1       8  C.gga
   13.26930362   10.48656011   10.01028570   1       9  C.gga
   12.00782946   12.67156044   10.01126973   1      10  C.gga
   13.26928369    9.09044460   10.01050296   1      11  C.gga
    8.28312864    9.06443015   10.01770095   1      12  C.gga
   10.79894230   13.36952579   10.01185810   1      13  C.gga
    9.53713366    6.88977412   10.02014617   1      14  C.gga
    7.02722506   11.23771452   10.01887222   1      15  C.gga
   12.00767886    6.90505539   10.01215981   1      16  C.gga
    8.27567359   13.36964962   10.01184252   1      17  C.gga
    7.02715558    8.33935762   10.01945297   1      18  C.gga
   10.79873013    6.20710275   10.01310772   1      19  C.gga
    7.06679904   12.67161972   10.01172787   1      20  C.gga
    8.27551131    6.20711761   10.01303858   1      21  C.gga
    5.80517439   10.48675285   10.01201405   1      22  C.gga
    7.06665365    6.90530330   10.01257743   1      23  C.gga
    5.80511981    9.09063852   10.01225399   1      24  C.gga
   14.23007201   11.03872769    9.99739144   2      25  H.gga
   12.96651345   13.22752905    9.99868557   2      26  H.gga
   14.23007220    8.53828320    9.99782414   2      27  H.gga
   10.80128690   14.47768483   10.00052081   2      28  H.gga
   12.96636148    6.34917525    9.99937480   2      29  H.gga
    8.27340739   14.47782821    9.99966474   2      30  H.gga
   10.80083926    5.09888376   10.00194007   2      31  H.gga
    6.10804631   13.22744806   10.00002318   2      32  H.gga
    8.27327470    5.09888613   10.00091500   2      33  H.gga
    4.84453895   11.03918903   10.00015243   2      34  H.gga
    6.10782800    6.34969788   10.00057521   2      35  H.gga
    4.84444056    8.53828395   10.00065459   2      36  H.gga

outcell: Unit cell vectors (Ang):
       20.000000    0.000000    0.000000
        0.000000   20.000000    0.000000
        0.000000    0.000000   20.000000

outcell: Cell vector modules (Ang)   :   20.000000   20.000000   20.000000
outcell: Cell angles (23,13,12) (deg):     90.0000     90.0000     90.0000
outcell: Cell volume (Ang**3)        :   8000.0000
<dSpData1D:S at geom step 0
  <sparsity:sparsity for geom step 0
    nrows_g=372 nrows=372 sparsity=.9007 nnzs=124638, refcount: 7>
  <dData1D:(new from dSpData1D) n=124638, refcount: 1>
refcount: 1>
new_DM -- step:     1
Initializing Density Matrix...
DM filled with atomic data:
<dSpData2D:DM initialized from atoms
  <sparsity:sparsity for geom step 0
    nrows_g=372 nrows=372 sparsity=.9007 nnzs=124638, refcount: 8>
  <dData2D:DM n=124638 m=1, refcount: 1>
refcount: 1>

No. of atoms with KB's overlaping orbs in proc 0. Max # of overlaps:      36     240
New grid distribution:   1
           1       1:  108    1:  108    1:  108

InitMesh: MESH =   216 x   216 x   216 =    10077696
InitMesh: (bp) =   108 x   108 x   108 =     1259712
InitMesh: Mesh cutoff (required, used) =   300.000   322.366 Ry
ExtMesh (bp) on 0 =   188 x   188 x   188 =     6644672
PhiOnMesh: Number of (b)points on node 0 =              1259712
PhiOnMesh: nlist on node 0 =              8486204

stepf: Fermi-Dirac step function

siesta: Program's energy decomposition (eV):
siesta: Ebs     =     -1065.344622
siesta: Eions   =      6359.269204
siesta: Ena     =      1432.981909
siesta: Ekin    =      2861.538389
siesta: Enl     =      -338.239604
siesta: Eso     =         0.000000
siesta: Eldau   =         0.000000
siesta: DEna    =      -230.935354
siesta: DUscf   =        30.664471
siesta: DUext   =         0.000000
siesta: Exc     =     -1474.100315
siesta: eta*DQ  =         0.000000
siesta: Emadel  =         0.000000
siesta: Emeta   =         0.000000
siesta: Emolmec =         0.000000
siesta: Ekinion =         0.000000
siesta: Eharris =     -4050.108818
siesta: Etot    =     -4077.359708
siesta: FreeEng =     -4077.359708

        iscf     Eharris(eV)        E_KS(eV)     FreeEng(eV)     dDmax    Ef(eV) dHmax(eV)
   scf:    1    -4050.108818    -4077.359708    -4077.359708  1.906633 -7.631393  8.008629
timer: Routine,Calls,Time,% = IterSCF        1      11.736  56.97
   scf:    2    -4087.272105    -4082.737791    -4082.737791  0.100859 -5.976689  4.419110
   scf:    3    -4085.843008    -4084.947309    -4084.947309  0.126298 -3.811178  0.667816
   scf:    4    -4085.116223    -4085.041908    -4085.041908  0.005672 -3.903618  0.475947
   scf:    5    -4085.084472    -4085.064026    -4085.064026  0.004534 -3.874268  0.338463
   scf:    6    -4085.094362    -4085.082293    -4085.082293  0.010383 -3.785224  0.057119
   scf:    7    -4085.082712    -4085.082533    -4085.082533  0.001490 -3.761991  0.019388
   scf:    8    -4085.082869    -4085.082721    -4085.082721  0.000398 -3.754269  0.019052
   scf:    9    -4085.082843    -4085.082785    -4085.082785  0.000243 -3.754985  0.012638
   scf:   10    -4085.082848    -4085.082822    -4085.082822  0.000368 -3.756978  0.003373
   scf:   11    -4085.082825    -4085.082823    -4085.082823  0.000114 -3.758141  0.001466
   scf:   12    -4085.082824    -4085.082824    -4085.082824  0.000047 -3.758746  0.000595

SCF Convergence by DM+H criterion
max |DM_out - DM_in|         :     0.0000468574
max |H_out - H_in|      (eV) :     0.0005947355
SCF cycle converged after 12 iterations

Using DM_out to compute the final energy and forces
No. of atoms with KB's overlaping orbs in proc 0. Max # of overlaps:      36     240

siesta: E_KS(eV) =            -4085.0828

siesta: E_KS - E_eggbox =     -4085.0828

siesta: Atomic forces (eV/Ang):
----------------------------------------
   Tot   -0.001250    0.002877   -0.003778
----------------------------------------
   Max    0.582254
   Res    0.147799    sqrt( Sum f_i^2 / 3N )
----------------------------------------
   Max    0.582254    constrained

Stress-tensor-Voigt (kbar):        0.95        0.96        0.00       -0.00       -0.00       -0.00
(Free)E + p*V (eV/cell)    -4088.2548
Target enthalpy (eV/cell)    -4085.0828

coxmol: Writing XMOL coordinates into file LiCoronene.xyz                                                      

siesta: Program's energy decomposition (eV):
siesta: Ebs     =     -1357.393163
siesta: Eions   =      6359.269204
siesta: Ena     =      1432.981909
siesta: Ekin    =      2722.011598
siesta: Enl     =      -313.589297
siesta: Eso     =         0.000000
siesta: Eldau   =         0.000000
siesta: DEna    =      -138.911071
siesta: DUscf   =        14.855691
siesta: DUext   =         0.000000
siesta: Exc     =     -1443.162451
siesta: eta*DQ  =         0.000000
siesta: Emadel  =         0.000000
siesta: Emeta   =         0.000000
siesta: Emolmec =         0.000000
siesta: Ekinion =         0.000000
siesta: Eharris =     -4085.082824
siesta: Etot    =     -4085.082824
siesta: FreeEng =     -4085.082824

siesta: Final energy (eV):
siesta:  Band Struct. =   -1357.393163
siesta:       Kinetic =    2722.011598
siesta:       Hartree =   14830.712936
siesta:       Eldau   =       0.000000
siesta:       Eso     =       0.000000
siesta:    Ext. field =       0.000000
siesta:   Exch.-corr. =   -1443.162451
siesta:  Ion-electron =  -32102.412347
siesta:       Ion-ion =   11907.767440
siesta:       Ekinion =       0.000000
siesta:         Total =   -4085.082824
siesta:         Fermi =      -3.758746

siesta: Atomic forces (eV/Ang):
siesta:      1   -0.019167   -0.011731    0.026749
siesta:      2   -0.020135    0.012502    0.026353
siesta:      3   -0.001169   -0.021627    0.025137
siesta:      4   -0.504538   -0.285350   -0.040269
siesta:      5   -0.000638    0.020613    0.023399
siesta:      6    0.019581   -0.012744    0.023914
siesta:      7   -0.504483    0.284649   -0.040279
siesta:      8    0.000959   -0.581214   -0.039931
siesta:      9    0.030632   -0.164655   -0.005057
siesta:     10   -0.122974    0.100285   -0.005805
siesta:     11    0.031968    0.165324   -0.004954
siesta:     12    0.020727    0.013743    0.023290
siesta:     13    0.151057   -0.053940   -0.004458
siesta:     14    0.000312    0.582254   -0.040134
siesta:     15    0.503570   -0.286270   -0.038826
siesta:     16   -0.123037   -0.099454   -0.005738
siesta:     17   -0.151791   -0.055050   -0.005203
siesta:     18    0.501962    0.285825   -0.038884
siesta:     19    0.151616    0.053389   -0.004413
siesta:     20    0.123222    0.101536   -0.003434
siesta:     21   -0.152725    0.055084   -0.005172
siesta:     22   -0.029808   -0.164452   -0.004117
siesta:     23    0.124165   -0.101443   -0.003371
siesta:     24   -0.028898    0.164783   -0.003948
siesta:     25    0.018401   -0.011080    0.012265
siesta:     26   -0.001088    0.021571    0.012837
siesta:     27    0.018145    0.011314    0.012042
siesta:     28    0.019065    0.010524    0.010718
siesta:     29   -0.000759   -0.021421    0.013217
siesta:     30   -0.019228    0.009531    0.012382
siesta:     31    0.019271   -0.010291    0.010737
siesta:     32    0.000737    0.022553    0.010835
siesta:     33   -0.019127   -0.009409    0.012519
siesta:     34   -0.018636   -0.011996    0.011413
siesta:     35    0.000452   -0.022503    0.011293
siesta:     36   -0.018889    0.012025    0.011118
siesta: ----------------------------------------
siesta:    Tot   -0.001250    0.002877   -0.003778

siesta: Stress tensor (static) (eV/Ang**3):
siesta:     0.000590   -0.000000   -0.000000
siesta:    -0.000000    0.000599   -0.000000
siesta:    -0.000000   -0.000000    0.000000

siesta: Cell volume =       8000.000000 Ang**3

siesta: Pressure (static):
siesta:                Solid            Molecule  Units
siesta:          -0.00000432         -0.00000001  Ry/Bohr**3
siesta:          -0.00039649         -0.00000077  eV/Ang**3
siesta:          -0.63525909         -0.00123603  kBar
(Free)E+ p_basis*V_orbitals  =       -4063.203450
(Free)Eharris+ p_basis*V_orbitals  =       -4063.203450

siesta: Electric dipole (a.u.)  =   -0.000074    0.000078   -0.028210
siesta: Electric dipole (Debye) =   -0.000188    0.000199   -0.071703

timer: Elapsed wall time (sec) =     105.410
timer: CPU execution times (sec):

Routine            Calls   Time/call    Tot.time        %
siesta                 1     105.410     105.410   100.00
Setup                  1       0.179       0.179     0.17
bands                  1       0.000       0.000     0.00
KSV_init               1       0.000       0.000     0.00
IterGeom               1     105.182     105.182    99.78
state_init             1       0.158       0.158     0.15
hsparse                1       0.008       0.008     0.01
overlap                1       0.141       0.141     0.13
Setup_H0               1       8.527       8.527     8.09
naefs                  2       0.000       0.001     0.00
MolMec                 2       0.000       0.000     0.00
kinefsm                2       0.091       0.182     0.17
nlefsm                 2       0.441       0.882     0.84
DHSCF_Init             1       7.819       7.819     7.42
DHSCF1                 1       0.094       0.094     0.09
INITMESH               1       0.000       0.000     0.00
DHSCF2                 1       7.725       7.725     7.33
REMESH                 1       0.299       0.299     0.28
REORD                 43       0.018       0.776     0.74
PHION                  1       5.703       5.703     5.41
COMM_BSC              31       0.019       0.593     0.56
POISON                15       0.807      12.105    11.48
fft                   30       0.325       9.737     9.24
IterSCF               12       6.676      80.112    76.00
setup_H               13       6.037      78.485    74.46
DHSCF                 14       6.734      94.282    89.44
DHSCF3                14       5.994      83.918    79.61
rhoofd                14       1.907      26.698    25.33
CellXC                14       1.807      25.305    24.01
cellXC                14       1.807      25.305    24.01
vmat                  14       1.244      17.414    16.52
compute_dm            12       0.129       1.549     1.47
diagon                12       0.128       1.535     1.46
r-eigvec              12       0.118       1.413     1.34
r-buildHS             12       0.000       0.004     0.00
rdiag                 12       0.117       1.410     1.34
rdiag1                12       0.009       0.108     0.10
rdiag2                12       0.019       0.231     0.22
rdiag3                12       0.073       0.874     0.83
rdiag4                12       0.016       0.193     0.18
r-buildD              12       0.010       0.117     0.11
MIXER                 11       0.001       0.016     0.02
PostSCF                1      16.380      16.380    15.54
DHSCF4                 1      10.364      10.364     9.83
dfscf                  1       9.380       9.380     8.90
overfsm                1       0.037       0.037     0.03
state_analysis         1       0.001       0.001     0.00
siesta_move            1       0.000       0.000     0.00
Analysis               1       0.006       0.006     0.01
optical                1       0.000       0.000     0.00
  
>> End of run:  23-AUG-2019   2:16:24
Job completed
