Siesta Version  : v4.1-b4
Architecture    : linux
Compiler version: GNU Fortran (Ubuntu 5.4.0-6ubuntu1~16.04.11) 5.4.0 20160609
Compiler flags  : mpif90 -g -fPIC -O3 -ftree-vectorize
PP flags        : -DFC_HAVE_ABORT -DSIESTA__DIAG_2STAGE -DSIESTA__MRRR -DMPI
Libraries       :  -Wl,-Bstatic -Wl,--start-group -lmkl_scalapack_lp64 -lmkl_blacs_intelmpi_lp664 -lmkl_intel_lp64 -lmkl_sequential -lmkl_core -Wl,--end-group -Wl,-Bdynamic
PARALLEL version

* Running on 6 nodes in parallel
>> Start of run:  27-AUG-2019  14:54:02

                           ***********************       
                           *  WELCOME TO SIESTA  *       
                           ***********************       

reinit: Reading from standard input
reinit: Dumped input in INPUT_TMP.84802
************************** Dump of input data file ****************************
# Siesta input file
         # -- SELF-CONSISTENT FIELD --
MeshCutoff                   300 Ry
PAO.EnergyShift              30 meV
XC.Functional                VDW
XC.Authors                   VV
MaxSCFIterations             1000
         # -- MOLECULAR DYNAMICS --
MD.TypeOfRun                 Broyden
MD.NumCGsteps                1000
MD.MaxForceTol               0.01 eV/Ang
         # -- MATERIAL --
SystemLabel                  BenzeneStacking
WriteCoorStep                true
WriteCoorXmol                true
%block ChemicalSpeciesLabel
 1   6   C.gga
 2   1   H.gga
%endblock ChemicalSpeciesLabel
AtomicCoordinatesFormat      Ang
LatticeConstant              1.000 Ang
%block LatticeVectors
       20.0000000000         0.0000000000         0.0000000000
        0.0000000000        20.0000000000         0.0000000000
        0.0000000000         0.0000000000        20.0000000000
%endblock LatticeVectors
%block AtomicCoordinatesAndAtomicSpecies
         3.71190        0.38019        5.43519  1
         2.31524        0.45566        5.42424  1
         1.62801        0.53468        4.20828  1
         2.33824        0.53774        3.00266  1
         3.73492        0.46281        3.01361  1
         4.42208        0.38323        4.22954  1
         4.68676        3.63117        4.22784  1
         3.29008        3.70610        4.21690  1
         2.60292        3.78567        3.00096  1
         3.31309        3.78870        1.79531  1
         4.70976        3.71323        1.80626  1
         5.39698        3.63422        3.02222  1
         4.24373        0.32289        6.37596  2
         1.76598        0.45536        6.35698  2
         0.54776        0.59681        4.19992  2
         1.80723        0.60551        2.06213  2
         4.28472        0.47376        2.08130  2
         5.50288        0.33158        4.23799  2
         5.21777        3.56339        5.16837  2
         2.74027        3.69515        5.14920  2
         1.52211        3.83732        2.99251  2
         2.78127        3.84600        0.85454  2
         5.25902        3.71353        0.87353  2
         6.47724        3.57208        3.03058  2
%endblock AtomicCoordinatesAndAtomicSpecies
************************** End of input data file *****************************

reinit: -----------------------------------------------------------------------
reinit: System Name: 
reinit: -----------------------------------------------------------------------
reinit: System Label: BenzeneStacking
reinit: -----------------------------------------------------------------------

initatom: Reading input for the pseudopotentials and atomic orbitals ----------
Species number:   1 Atomic number:    6 Label: C.gga
Species number:   2 Atomic number:    1 Label: H.gga

Ground state valence configuration:   2s02  2p02
Reading pseudopotential information in formatted form from C.gga.psf

Valence configuration for pseudopotential generation:
2s( 2.00) rc: 1.54
2p( 2.00) rc: 1.54
3d( 0.00) rc: 1.54
4f( 0.00) rc: 1.54
Ground state valence configuration:   1s01
Reading pseudopotential information in formatted form from H.gga.psf

Valence configuration for pseudopotential generation:
1s( 1.00) rc: 1.31
2p( 0.00) rc: 1.31
3d( 0.00) rc: 0.37
4f( 0.00) rc: 1.31
For C.gga, standard SIESTA heuristics set lmxkb to 3
 (one more than the basis l, including polarization orbitals).
Use PS.lmax or PS.KBprojectors blocks to override.
For H.gga, standard SIESTA heuristics set lmxkb to 2
 (one more than the basis l, including polarization orbitals).
Use PS.lmax or PS.KBprojectors blocks to override.

<basis_specs>
===============================================================================
C.gga                Z=   6    Mass=  12.010        Charge= 0.17977+309
Lmxo=1 Lmxkb= 3    BasisType=split      Semic=F
L=0  Nsemic=0  Cnfigmx=2
          n=1  nzeta=2  polorb=0
            splnorm:   0.15000    
               vcte:    0.0000    
               rinn:    0.0000    
               qcoe:    0.0000    
               qyuk:    0.0000    
               qwid:   0.10000E-01
                rcs:    0.0000      0.0000    
            lambdas:    1.0000      1.0000    
L=1  Nsemic=0  Cnfigmx=2
          n=1  nzeta=2  polorb=1
            splnorm:   0.15000    
               vcte:    0.0000    
               rinn:    0.0000    
               qcoe:    0.0000    
               qyuk:    0.0000    
               qwid:   0.10000E-01
                rcs:    0.0000      0.0000    
            lambdas:    1.0000      1.0000    
-------------------------------------------------------------------------------
L=0  Nkbl=1  erefs: 0.17977+309
L=1  Nkbl=1  erefs: 0.17977+309
L=2  Nkbl=1  erefs: 0.17977+309
L=3  Nkbl=1  erefs: 0.17977+309
===============================================================================
</basis_specs>

atom: Called for C.gga                 (Z =   6)

read_vps: Pseudopotential generation method:
read_vps: ATM3      Troullier-Martins                       
Total valence charge:    4.00000

read_vps: Pseudopotential includes a core correction:
read_vps: Pseudo-core for xc-correction

xc_check: Exchange-correlation functional:
xc_check: VDW Vydrov-vanVoorhis
xc_check: WARNING: Pseudopotential generated with GGA PBE functional
V l=0 = -2*Zval/r beyond r=  1.5227
V l=1 = -2*Zval/r beyond r=  1.5227
V l=2 = -2*Zval/r beyond r=  1.5227
V l=3 = -2*Zval/r beyond r=  1.5038
All V_l potentials equal beyond r=  1.5227
This should be close to max(r_c) in ps generation
All pots = -2*Zval/r beyond r=  1.5227

VLOCAL1: 99.0% of the norm of Vloc inside     18.722 Ry
VLOCAL1: 99.9% of the norm of Vloc inside     42.668 Ry
atom: Maximum radius for 4*pi*r*r*local-pseudopot. charge    1.83678
atom: Maximum radius for r*vlocal+2*Zval:    1.58088
GHOST: No ghost state for L =  0
GHOST: No ghost state for L =  1
GHOST: No ghost state for L =  2
GHOST: No ghost state for L =  3

KBgen: Kleinman-Bylander projectors: 
   l= 0   rc=  1.704034   el= -1.007777   Ekb=  5.338379   kbcos=  0.317750
   l= 1   rc=  1.704034   el= -0.387531   Ekb= -3.785885   kbcos= -0.366390
   l= 2   rc=  1.791422   el=  0.002326   Ekb= -0.969970   kbcos= -0.009232
   l= 3   rc=  1.859892   el=  0.003420   Ekb= -0.399474   kbcos= -0.001222

KBgen: Total number of  Kleinman-Bylander projectors:   16
atom: -------------------------------------------------------------------------

atom: SANKEY-TYPE ORBITALS:
atom: Selected multiple-zeta basis: split     

SPLIT: Orbitals with angular momentum L= 0

SPLIT: Basis orbitals for state 2s

SPLIT: PAO cut-off radius determined from an
SPLIT: energy shift=  0.002205 Ry

   izeta = 1
                 lambda =    1.000000
                     rc =    5.382558
                 energy =   -1.005954
                kinetic =    0.827266
    potential(screened) =   -1.833219
       potential(ionic) =   -5.373774

   izeta = 2
                 rmatch =    3.518811
              splitnorm =    0.150000
                 energy =   -0.873330
                kinetic =    1.283612
    potential(screened) =   -2.156942
       potential(ionic) =   -5.949521

SPLIT: Orbitals with angular momentum L= 1

SPLIT: Basis orbitals for state 2p

SPLIT: PAO cut-off radius determined from an
SPLIT: energy shift=  0.002205 Ry

   izeta = 1
                 lambda =    1.000000
                     rc =    6.740804
                 energy =   -0.385574
                kinetic =    2.322129
    potential(screened) =   -2.707703
       potential(ionic) =   -6.091220

   izeta = 2
                 rmatch =    3.792903
              splitnorm =    0.150000
                 energy =   -0.268085
                kinetic =    3.430437
    potential(screened) =   -3.698522
       potential(ionic) =   -7.463879

POLgen: Perturbative polarization orbital with L=  2

POLgen: Polarization orbital for state 2p

   izeta = 1
                     rc =    6.740804
                 energy =    0.969168
                kinetic =    2.045401
    potential(screened) =   -1.076233
       potential(ionic) =   -3.771746
atom: Total number of Sankey-type orbitals: 13

atm_pop: Valence configuration (for local Pseudopot. screening):
 2s( 2.00)                                                            
 2p( 2.00)                                                            
Vna: chval, zval:    4.00000   4.00000

Vna:  Cut-off radius for the neutral-atom potential:   6.740804
comcore: Pseudo-core radius Rcore=  1.791422

atom: _________________________________________________________________________

<basis_specs>
===============================================================================
H.gga                Z=   1    Mass=  1.0100        Charge= 0.17977+309
Lmxo=0 Lmxkb= 2    BasisType=split      Semic=F
L=0  Nsemic=0  Cnfigmx=1
          n=1  nzeta=2  polorb=1
            splnorm:   0.15000    
               vcte:    0.0000    
               rinn:    0.0000    
               qcoe:    0.0000    
               qyuk:    0.0000    
               qwid:   0.10000E-01
                rcs:    0.0000      0.0000    
            lambdas:    1.0000      1.0000    
-------------------------------------------------------------------------------
L=0  Nkbl=1  erefs: 0.17977+309
L=1  Nkbl=1  erefs: 0.17977+309
L=2  Nkbl=1  erefs: 0.17977+309
===============================================================================
</basis_specs>

atom: Called for H.gga                 (Z =   1)

read_vps: Pseudopotential generation method:
read_vps: ATM3      Troullier-Martins                       
Total valence charge:    1.00000

xc_check: Exchange-correlation functional:
xc_check: VDW Vydrov-vanVoorhis
xc_check: WARNING: Pseudopotential generated with GGA PBE functional
V l=0 = -2*Zval/r beyond r=  1.2977
V l=1 = -2*Zval/r beyond r=  1.2815
V l=2 = -2*Zval/r beyond r=  1.2656
All V_l potentials equal beyond r=  1.2977
This should be close to max(r_c) in ps generation
All pots = -2*Zval/r beyond r=  1.2977

VLOCAL1: 99.0% of the norm of Vloc inside     25.776 Ry
VLOCAL1: 99.9% of the norm of Vloc inside     58.745 Ry
atom: Maximum radius for 4*pi*r*r*local-pseudopot. charge    1.52711
atom: Maximum radius for r*vlocal+2*Zval:    1.28155
GHOST: No ghost state for L =  0
GHOST: No ghost state for L =  1
GHOST: No ghost state for L =  2

KBgen: Kleinman-Bylander projectors: 
   l= 0   rc=  1.434438   el= -0.487090   Ekb= -1.957367   kbcos= -0.365113
   l= 1   rc=  1.508111   el=  0.001432   Ekb= -0.424424   kbcos= -0.025587
   l= 2   rc=  1.527112   el=  0.002365   Ekb= -0.379253   kbcos= -0.002001

KBgen: Total number of  Kleinman-Bylander projectors:    9
atom: -------------------------------------------------------------------------

atom: SANKEY-TYPE ORBITALS:
atom: Selected multiple-zeta basis: split     

SPLIT: Orbitals with angular momentum L= 0

SPLIT: Basis orbitals for state 1s

SPLIT: PAO cut-off radius determined from an
SPLIT: energy shift=  0.002205 Ry

   izeta = 1
                 lambda =    1.000000
                     rc =    6.357341
                 energy =   -0.485004
                kinetic =    0.895195
    potential(screened) =   -1.380199
       potential(ionic) =   -1.890245

   izeta = 2
                 rmatch =    4.052721
              splitnorm =    0.150000
                 energy =   -0.390358
                kinetic =    1.452439
    potential(screened) =   -1.842798
       potential(ionic) =   -2.377006

POLgen: Perturbative polarization orbital with L=  1

POLgen: Polarization orbital for state 1s

   izeta = 1
                     rc =    6.357341
                 energy =    0.551578
                kinetic =    1.168896
    potential(screened) =   -0.617319
       potential(ionic) =   -1.081157
atom: Total number of Sankey-type orbitals:  5

atm_pop: Valence configuration (for local Pseudopot. screening):
 1s( 1.00)                                                            
Vna: chval, zval:    1.00000   1.00000

Vna:  Cut-off radius for the neutral-atom potential:   6.357341

atom: _________________________________________________________________________

prinput: Basis input ----------------------------------------------------------

PAO.BasisType split     

%block ChemicalSpeciesLabel
    1    6 C.gga                   # Species index, atomic number, species label
    2    1 H.gga                   # Species index, atomic number, species label
%endblock ChemicalSpeciesLabel

%block PAO.Basis                 # Define Basis set
C.gga                 2                    # Species label, number of l-shells
 n=2   0   2                         # n, l, Nzeta 
   5.383      3.519   
   1.000      1.000   
 n=2   1   2 P   1                   # n, l, Nzeta, Polarization, NzetaPol
   6.741      3.793   
   1.000      1.000   
H.gga                 1                    # Species label, number of l-shells
 n=1   0   2 P   1                   # n, l, Nzeta, Polarization, NzetaPol
   6.357      4.053   
   1.000      1.000   
%endblock PAO.Basis

prinput: ----------------------------------------------------------------------

coor:   Atomic-coordinates input format  =     Cartesian coordinates
coor:                                          (in Angstroms)

siesta: Atomic coordinates (Bohr) and species
siesta:      7.01448   0.71846  10.27102  1        1
siesta:      4.37517   0.86107  10.25033  1        2
siesta:      3.07649   1.01040   7.95250  1        3
siesta:      4.41863   1.01618   5.67421  1        4
siesta:      7.05798   0.87458   5.69490  1        5
siesta:      8.35652   0.72420   7.99268  1        6
siesta:      8.85670   6.86192   7.98946  1        7
siesta:      6.21735   7.00352   7.96879  1        8
siesta:      4.91881   7.15388   5.67099  1        9
siesta:      6.26084   7.15961   3.39265  1       10
siesta:      8.90016   7.01699   3.41334  1       11
siesta:     10.19882   6.86768   5.71117  1       12
siesta:      8.01949   0.61017  12.04882  2       13
siesta:      3.33722   0.86051  12.01296  2       14
siesta:      1.03512   1.12781   7.93670  2       15
siesta:      3.41517   1.14425   3.89686  2       16
siesta:      8.09695   0.89528   3.93309  2       17
siesta:     10.39894   0.62660   8.00864  2       18
siesta:      9.86016   6.73383   9.76681  2       19
siesta:      5.17836   6.98282   9.73058  2       20
siesta:      2.87637   7.25149   5.65503  2       21
siesta:      5.25584   7.26789   1.61485  2       22
siesta:      9.93811   7.01756   1.65073  2       23
siesta:     12.24021   6.75026   5.72697  2       24

siesta: System type = molecule  

initatomlists: Number of atoms, orbitals, and projectors:     24   216   300

coxmol: Writing XMOL coordinates into file BenzeneStacking.xyz                                                 

siesta: ******************** Simulation parameters ****************************
siesta:
siesta: The following are some of the parameters of the simulation.
siesta: A complete list of the parameters used, including default values,
siesta: can be found in file out.fdf
siesta:
redata: Spin configuration                          = none
redata: Number of spin components                   = 1
redata: Time-Reversal Symmetry                      = T
redata: Spin-spiral                                 = F
redata: Long output                                 =   F
redata: Number of Atomic Species                    =        2
redata: Charge density info will appear in .RHO file
redata: Write Mulliken Pop.                         = NO
redata: Matel table size (NRTAB)                    =     1024
redata: Mesh Cutoff                                 =   300.0000 Ry
redata: Net charge of the system                    =     0.0000 |e|
redata: Min. number of SCF Iter                     =        0
redata: Max. number of SCF Iter                     =     1000
redata: SCF convergence failure will abort job
redata: SCF mix quantity                            = Hamiltonian
redata: Mix DM or H after convergence               =   F
redata: Recompute H after scf cycle                 =   F
redata: Mix DM in first SCF step                    =   T
redata: Write Pulay info on disk                    =   F
redata: New DM Mixing Weight                        =     0.2500
redata: New DM Occupancy tolerance                  = 0.000000000001
redata: No kicks to SCF
redata: DM Mixing Weight for Kicks                  =     0.5000
redata: Require Harris convergence for SCF          =   F
redata: Harris energy tolerance for SCF             =     0.000100 eV
redata: Require DM convergence for SCF              =   T
redata: DM tolerance for SCF                        =     0.000100
redata: Require EDM convergence for SCF             =   F
redata: EDM tolerance for SCF                       =     0.001000 eV
redata: Require H convergence for SCF               =   T
redata: Hamiltonian tolerance for SCF               =     0.001000 eV
redata: Require (free) Energy convergence for SCF   =   F
redata: (free) Energy tolerance for SCF             =     0.000100 eV
redata: Using Saved Data (generic)                  =   F
redata: Use continuation files for DM               =   F
redata: Neglect nonoverlap interactions             =   F
redata: Method of Calculation                       = Diagonalization
redata: Electronic Temperature                      =   299.9869 K
redata: Fix the spin of the system                  =   F
redata: Dynamics option                             = Broyden coord. optimization
redata: Variable cell                               =   F
redata: Maximum number of CG moves                  =     1000
redata: Force tolerance                             =     0.0100 eV/Ang
mix.SCF: Pulay mixing                            = Pulay
mix.SCF:    Variant                              = stable
mix.SCF:    History steps                        = 2
mix.SCF:    Linear mixing weight                 =     0.250000
mix.SCF:    Mixing weight                        =     0.250000
mix.SCF:    SVD condition                        = 0.1000E-07
redata: ***********************************************************************

%block SCF.Mixers
  Pulay
%endblock SCF.Mixers

%block SCF.Mixer.Pulay
  # Mixing method
  method pulay
  variant stable

  # Mixing options
  weight 0.2500
  weight.linear 0.2500
  history 2
%endblock SCF.Mixer.Pulay

DM_history_depth set to one: no extrapolation allowed by default for geometry relaxation
Size of DM history Fstack: 1
Total number of electrons:    60.000000
Total ionic charge:    60.000000

* ProcessorY, Blocksize:    2  24


* Orbital distribution balance (max,min):    48    24

 Kpoints in:            1 . Kpoints trimmed:            1

siesta: k-grid: Number of k-points =     1
siesta: k-grid: Cutoff (effective) =    10.000 Ang
siesta: k-grid: Supercell and displacements
siesta: k-grid:    1   0   0      0.000
siesta: k-grid:    0   1   0      0.000
siesta: k-grid:    0   0   1      0.000

diag: Algorithm                                     = D&C
diag: Parallel over k                               =   F
diag: Use parallel 2D distribution                  =   T
diag: Parallel block-size                           = 24
diag: Parallel distribution                         =     2 x     3
diag: Used triangular part                          = Lower
diag: Absolute tolerance                            =  0.100E-15
diag: Orthogonalization factor                      =  0.100E-05
diag: Memory factor                                 =  1.0000


ts: **************************************************************
ts: Save H and S matrices                           =    F
ts: Save DM and EDM matrices                        =    F
ts: Fix Hartree potential                           =    F
ts: Only save the overlap matrix S                  =    F
ts: **************************************************************

************************ Begin: TS CHECKS AND WARNINGS ************************
************************ End: TS CHECKS AND WARNINGS **************************


                     ====================================
                        Begin Broyden opt. move =      0
                     ====================================

outcoor: Atomic coordinates (Ang):                          
    3.71190000    0.38019000    5.43519000   1       1  C.gga
    2.31524000    0.45566000    5.42424000   1       2  C.gga
    1.62801000    0.53468000    4.20828000   1       3  C.gga
    2.33824000    0.53774000    3.00266000   1       4  C.gga
    3.73492000    0.46281000    3.01361000   1       5  C.gga
    4.42208000    0.38323000    4.22954000   1       6  C.gga
    4.68676000    3.63117000    4.22784000   1       7  C.gga
    3.29008000    3.70610000    4.21690000   1       8  C.gga
    2.60292000    3.78567000    3.00096000   1       9  C.gga
    3.31309000    3.78870000    1.79531000   1      10  C.gga
    4.70976000    3.71323000    1.80626000   1      11  C.gga
    5.39698000    3.63422000    3.02222000   1      12  C.gga
    4.24373000    0.32289000    6.37596000   2      13  H.gga
    1.76598000    0.45536000    6.35698000   2      14  H.gga
    0.54776000    0.59681000    4.19992000   2      15  H.gga
    1.80723000    0.60551000    2.06213000   2      16  H.gga
    4.28472000    0.47376000    2.08130000   2      17  H.gga
    5.50288000    0.33158000    4.23799000   2      18  H.gga
    5.21777000    3.56339000    5.16837000   2      19  H.gga
    2.74027000    3.69515000    5.14920000   2      20  H.gga
    1.52211000    3.83732000    2.99251000   2      21  H.gga
    2.78127000    3.84600000    0.85454000   2      22  H.gga
    5.25902000    3.71353000    0.87353000   2      23  H.gga
    6.47724000    3.57208000    3.03058000   2      24  H.gga

outcell: Unit cell vectors (Ang):
       20.000000    0.000000    0.000000
        0.000000   20.000000    0.000000
        0.000000    0.000000   20.000000

outcell: Cell vector modules (Ang)   :   20.000000   20.000000   20.000000
outcell: Cell angles (23,13,12) (deg):     90.0000     90.0000     90.0000
outcell: Cell volume (Ang**3)        :   8000.0000
<dSpData1D:S at geom step 0
  <sparsity:sparsity for geom step 0
    nrows_g=216 nrows=48 sparsity=.2134 nnzs=9956, refcount: 7>
  <dData1D:(new from dSpData1D) n=9956, refcount: 1>
refcount: 1>
new_DM -- step:     1
Initializing Density Matrix...
DM filled with atomic data:
<dSpData2D:DM initialized from atoms
  <sparsity:sparsity for geom step 0
    nrows_g=216 nrows=48 sparsity=.2134 nnzs=9956, refcount: 8>
  <dData2D:DM n=9956 m=1, refcount: 1>
refcount: 1>
No. of atoms with KB's overlaping orbs in proc 0. Max # of overlaps:      24     183
New grid distribution:   1
           1       1:  108    1:   54    1:   36
           2       1:  108    1:   54   37:   72
           3       1:  108    1:   54   73:  108
           4       1:  108   55:  108    1:   36
           5       1:  108   55:  108   37:   72
           6       1:  108   55:  108   73:  108

InitMesh: MESH =   216 x   216 x   216 =    10077696
InitMesh: (bp) =   108 x   108 x   108 =     1259712
InitMesh: Mesh cutoff (required, used) =   300.000   322.366 Ry
ExtMesh (bp) on 0 =   188 x   134 x   116 =     2922272
New grid distribution:   2
           1       1:   20   13:  108    1:   20
           2       1:  108    1:   10   21:  108
           3       1:  108    1:   12    1:   20
           4      21:  108   13:  108    1:   20
           5      20:  108   11:  108   21:  108
           6       1:   19   11:  108   21:  108
New grid distribution:   3
           1       1:   25   18:  108    1:   25
           2       1:  108    1:   15   26:  108
           3       1:  108    1:   17    1:   25
           4      26:  108   18:  108    1:   25
           5      24:  108   16:  108   26:  108
           6       1:   23   16:  108   26:  108
Setting up quadratic distribution...
ExtMesh (bp) on 0 =   100 x   176 x   100 =     1760000
PhiOnMesh: Number of (b)points on node 0 =                38400
PhiOnMesh: nlist on node 0 =               746202

stepf: Fermi-Dirac step function

siesta: Program's energy decomposition (eV):
siesta: Ebs     =      -503.023352
siesta: Eions   =      3292.100692
siesta: Ena     =       750.334750
siesta: Ekin    =      1567.057464
siesta: Enl     =      -209.678484
siesta: Eso     =         0.000000
siesta: Eldau   =         0.000000
siesta: DEna    =      -164.768354
siesta: DUscf   =        25.519316
siesta: DUext   =         0.000000
siesta: Enegf   =         0.000000
siesta: Exc     =      -809.408940
siesta: eta*DQ  =         0.000000
siesta: Emadel  =         0.000000
siesta: Emeta   =         0.000000
siesta: Emolmec =         0.000000
siesta: Ekinion =         0.000000
siesta: Eharris =     -2123.722212
siesta: Etot    =     -2133.044940
siesta: FreeEng =     -2133.044940

        iscf     Eharris(eV)        E_KS(eV)     FreeEng(eV)     dDmax    Ef(eV) dHmax(eV)
   scf:    1    -2123.722212    -2133.044940    -2133.044940  1.975739 -7.331499  9.878306
timer: Routine,Calls,Time,% = IterSCF        1     111.880  95.53
   scf:    2    -2143.494049    -2138.854001    -2138.854001  0.126326 -7.117664  4.961923
   scf:    3    -2141.446981    -2140.706351    -2140.706351  0.137220 -4.880628  0.813005
   scf:    4    -2140.868577    -2140.794406    -2140.794406  0.011553 -4.878052  0.539640
   scf:    5    -2140.853739    -2140.826943    -2140.826943  0.011976 -4.823096  0.296974
   scf:    6    -2140.841578    -2140.835018    -2140.835018  0.010258 -4.737858  0.100743
   scf:    7    -2140.836285    -2140.835767    -2140.835767  0.005402 -4.675449  0.023975
   scf:    8    -2140.836180    -2140.835993    -2140.835993  0.000303 -4.670735  0.015925
   scf:    9    -2140.836134    -2140.836072    -2140.836072  0.000360 -4.669775  0.008715
   scf:   10    -2140.836095    -2140.836085    -2140.836085  0.000207 -4.670932  0.004612
   scf:   11    -2140.836088    -2140.836087    -2140.836087  0.000184 -4.672544  0.001141
   scf:   12    -2140.836088    -2140.836087    -2140.836087  0.000014 -4.672900  0.000468

SCF Convergence by DM+H criterion
max |DM_out - DM_in|         :     0.0000139039
max |H_out - H_in|      (eV) :     0.0004682767
SCF cycle converged after 12 iterations

Using DM_out to compute the final energy and forces
No. of atoms with KB's overlaping orbs in proc 0. Max # of overlaps:      24     183

siesta: E_KS(eV) =            -2140.8361

siesta: E_KS - E_eggbox =     -2140.8361

siesta: Atomic forces (eV/Ang):
----------------------------------------
   Tot   -0.000036    0.000992   -0.008921
----------------------------------------
   Max    0.923886
   Res    0.373366    sqrt( Sum f_i^2 / 3N )
----------------------------------------
   Max    0.923886    constrained

Stress-tensor-Voigt (kbar):       -2.68       -0.13       -2.69        0.12        0.11        0.02
(Free)E + p*V (eV/cell)    -2131.7011
Target enthalpy (eV/cell)    -2140.8361

Broyden_optim: max_history for broyden:   5
Broyden_optim: cycle on maxit: T
Broyden_optim: initial inverse jacobian:   1.0000

Broyden_optim: No of elements:     72

                     ====================================
                        Begin Broyden opt. move =      1
                     ====================================

outcoor: Atomic coordinates (Ang):                          
    3.71220987    0.37969227    5.43470296   1       1  C.gga
    2.31499786    0.45589282    5.42440576   1       2  C.gga
    1.62842005    0.53412799    4.20795100   1       3  C.gga
    2.33876235    0.53689755    3.00371294   1       4  C.gga
    3.73514773    0.46095748    3.01354192   1       5  C.gga
    4.42059227    0.38259602    4.22934816   1       6  C.gga
    4.68627121    3.63200881    4.22674652   1       7  C.gga
    3.28991523    3.70796444    4.21691614   1       8  C.gga
    2.60434874    3.78630467    3.00114189   1       9  C.gga
    3.31273066    3.78920354    1.79576991   1      10  C.gga
    4.70992640    3.71300276    1.80605887   1      11  C.gga
    5.39664088    3.63477666    3.02252528   1      12  C.gga
    4.25296209    0.32173177    6.39243489   2      13  H.gga
    1.75645884    0.45520535    6.37311474   2      14  H.gga
    0.52874767    0.59774048    4.19982595   2      15  H.gga
    1.79816881    0.60671421    2.04578082   2      16  H.gga
    4.29410115    0.47421537    2.06543153   2      17  H.gga
    5.52167764    0.33072273    4.23799553   2      18  H.gga
    5.22683716    3.56218425    5.18472469   2      19  H.gga
    2.73089741    3.69469395    5.16507133   2      20  H.gga
    1.50331843    3.83817953    2.99250525   2      21  H.gga
    2.77203432    3.84715691    0.83807266   2      22  H.gga
    5.26853750    3.71368259    0.85738578   2      23  H.gga
    6.49625500    3.57114828    3.03067188   2      24  H.gga

outcell: Unit cell vectors (Ang):
       20.000000    0.000000    0.000000
        0.000000   20.000000    0.000000
        0.000000    0.000000   20.000000

outcell: Cell vector modules (Ang)   :   20.000000   20.000000   20.000000
outcell: Cell angles (23,13,12) (deg):     90.0000     90.0000     90.0000
outcell: Cell volume (Ang**3)        :   8000.0000
<dSpData1D:S at geom step 1
  <sparsity:sparsity for geom step 1
    nrows_g=216 nrows=48 sparsity=.2133 nnzs=9953, refcount: 7>
  <dData1D:(new from dSpData1D) n=9953, refcount: 1>
refcount: 1>
new_DM -- step:     2
Re-using DM from previous geometries...
Number of DMs in history: 1
 DM extrapolation coefficients: 
1   1.00000
New DM after history re-use:
<dSpData2D:SpM extrapolated using coords
  <sparsity:sparsity for geom step 1
    nrows_g=216 nrows=48 sparsity=.2133 nnzs=9953, refcount: 9>
  <dData2D:(temp array for extrapolation) n=9953 m=1, refcount: 1>
refcount: 1>
Note: For starting DM, Qtot, Tr[D*S] =         60.00000000         59.86955601
No. of atoms with KB's overlaping orbs in proc 0. Max # of overlaps:      24     183
New grid distribution:   1
           1       1:  108    1:   54    1:   36
           2       1:  108    1:   54   37:   72
           3       1:  108    1:   54   73:  108
           4       1:  108   55:  108    1:   36
           5       1:  108   55:  108   37:   72
           6       1:  108   55:  108   73:  108

InitMesh: MESH =   216 x   216 x   216 =    10077696
InitMesh: (bp) =   108 x   108 x   108 =     1259712
InitMesh: Mesh cutoff (required, used) =   300.000   322.366 Ry
ExtMesh (bp) on 0 =   188 x   134 x   116 =     2922272
New grid distribution:   2
           1       1:   20   13:  108    1:   20
           2       1:  108    1:   10   21:  108
           3       1:  108    1:   12    1:   20
           4      21:  108   13:  108    1:   20
           5      20:  108   11:  108   21:  108
           6       1:   19   11:  108   21:  108
New grid distribution:   3
           1       1:   26   18:  108    1:   25
           2       1:  108    1:   15   26:  108
           3       1:  108    1:   17    1:   25
           4      27:  108   18:  108    1:   25
           5      24:  108   16:  108   26:  108
           6       1:   23   16:  108   26:  108
Setting up quadratic distribution...
ExtMesh (bp) on 0 =   100 x   176 x   100 =     1760000
PhiOnMesh: Number of (b)points on node 0 =                38400
PhiOnMesh: nlist on node 0 =               745485

        iscf     Eharris(eV)        E_KS(eV)     FreeEng(eV)     dDmax    Ef(eV) dHmax(eV)
   scf:    1    -2141.480638    -2140.949022    -2140.949022  0.021324 -4.572129  0.349228
   scf:    2    -2140.857136    -2140.929456    -2140.929456  0.011774 -4.895871  0.603298
   scf:    3    -2140.974353    -2140.961944    -2140.961944  0.007416 -4.698950  0.010724
   scf:    4    -2140.961976    -2140.961961    -2140.961961  0.000131 -4.700349  0.006690
   scf:    5    -2140.961980    -2140.961971    -2140.961971  0.000141 -4.701740  0.002989
   scf:    6    -2140.961974    -2140.961973    -2140.961973  0.000077 -4.702448  0.001012
   scf:    7    -2140.961973    -2140.961973    -2140.961973  0.000025 -4.702645  0.000286

SCF Convergence by DM+H criterion
max |DM_out - DM_in|         :     0.0000250619
max |H_out - H_in|      (eV) :     0.0002861084
SCF cycle converged after 7 iterations

Using DM_out to compute the final energy and forces
No. of atoms with KB's overlaping orbs in proc 0. Max # of overlaps:      24     183

siesta: E_KS(eV) =            -2140.9620

siesta: Atomic forces (eV/Ang):
----------------------------------------
   Tot   -0.001354    0.000675   -0.007594
----------------------------------------
   Max    0.708549
   Res    0.291605    sqrt( Sum f_i^2 / 3N )
----------------------------------------
   Max    0.708549    constrained

Stress-tensor-Voigt (kbar):       -1.80       -0.12       -1.85        0.08        0.08        0.04
(Free)E + p*V (eV/cell)    -2134.6874
Target enthalpy (eV/cell)    -2140.9620

                     ====================================
                        Begin Broyden opt. move =      2
                     ====================================

outcoor: Atomic coordinates (Ang):                          
    3.71610736    0.37893581    5.44301329   1       1  C.gga
    2.31066481    0.45591545    5.43214289   1       2  C.gga
    1.61901306    0.53433303    4.20836209   1       3  C.gga
    2.33440859    0.53691359    2.99524315   1       4  C.gga
    3.73949418    0.46001392    3.00559396   1       5  C.gga
    4.43036867    0.38159539    4.22925501   1       6  C.gga
    4.69067769    3.63199138    4.23519471   1       7  C.gga
    3.28555273    3.70891092    4.22485414   1       8  C.gga
    2.59459146    3.78730263    3.00123068   1       9  C.gga
    3.30879888    3.78996257    1.78746952   1      10  C.gga
    4.71426283    3.71298073    1.79833170   1      11  C.gga
    5.40602014    3.63457780    3.02206918   1      12  C.gga
    4.25461771    0.32146043    6.39528444   2      13  H.gga
    1.75465576    0.45513295    6.37613723   2      14  H.gga
    0.52552264    0.59782902    4.19976822   2      15  H.gga
    1.79684551    0.60689392    2.04327315   2      16  H.gga
    4.29582917    0.47436353    2.06255343   2      17  H.gga
    5.52443239    0.33059851    4.23793427   2      18  H.gga
    5.22815724    3.56200528    5.18722240   2      19  H.gga
    2.72919408    3.69454675    5.16792814   2      20  H.gga
    1.50052913    3.83830431    2.99256911   2      21  H.gga
    2.77036456    3.84742902    0.83520409   2      22  H.gga
    5.27031998    3.71375369    0.85437277   2      23  H.gga
    6.49951196    3.57105909    3.03072402   2      24  H.gga

outcell: Unit cell vectors (Ang):
       20.000000    0.000000    0.000000
        0.000000   20.000000    0.000000
        0.000000    0.000000   20.000000

outcell: Cell vector modules (Ang)   :   20.000000   20.000000   20.000000
outcell: Cell angles (23,13,12) (deg):     90.0000     90.0000     90.0000
outcell: Cell volume (Ang**3)        :   8000.0000
<dSpData1D:S at geom step 2
  <sparsity:sparsity for geom step 2
    nrows_g=216 nrows=48 sparsity=.2133 nnzs=9953, refcount: 7>
  <dData1D:(new from dSpData1D) n=9953, refcount: 1>
refcount: 1>
new_DM -- step:     3
Re-using DM from previous geometries...
Number of DMs in history: 1
 DM extrapolation coefficients: 
1   1.00000
New DM after history re-use:
<dSpData2D:SpM extrapolated using coords
  <sparsity:sparsity for geom step 2
    nrows_g=216 nrows=48 sparsity=.2133 nnzs=9953, refcount: 9>
  <dData2D:(temp array for extrapolation) n=9953 m=1, refcount: 1>
refcount: 1>
No. of atoms with KB's overlaping orbs in proc 0. Max # of overlaps:      24     183
New grid distribution:   1
           1       1:  108    1:   54    1:   36
           2       1:  108    1:   54   37:   72
           3       1:  108    1:   54   73:  108
           4       1:  108   55:  108    1:   36
           5       1:  108   55:  108   37:   72
           6       1:  108   55:  108   73:  108

InitMesh: MESH =   216 x   216 x   216 =    10077696
InitMesh: (bp) =   108 x   108 x   108 =     1259712
InitMesh: Mesh cutoff (required, used) =   300.000   322.366 Ry
ExtMesh (bp) on 0 =   188 x   134 x   116 =     2922272
New grid distribution:   2
           1       1:   20   13:  108    1:   20
           2       1:  108    1:   10   21:  108
           3       1:  108    1:   12    1:   20
           4      21:  108   13:  108    1:   20
           5      20:  108   11:  108   21:  108
           6       1:   19   11:  108   21:  108
New grid distribution:   3
           1       1:   26   18:  108    1:   25
           2       1:  108    1:   15   26:  108
           3       1:  108    1:   17    1:   25
           4      27:  108   18:  108    1:   25
           5      24:  108   16:  108   26:  108
           6       1:   23   16:  108   26:  108
Setting up quadratic distribution...
ExtMesh (bp) on 0 =   100 x   176 x   100 =     1760000
PhiOnMesh: Number of (b)points on node 0 =                38400
PhiOnMesh: nlist on node 0 =               744788

        iscf     Eharris(eV)        E_KS(eV)     FreeEng(eV)     dDmax    Ef(eV) dHmax(eV)
   scf:    1    -2141.300957    -2141.007296    -2141.007296  0.008454 -4.705631  0.194617
   scf:    2    -2140.967444    -2140.999058    -2140.999058  0.006457 -4.520236  0.387420
   scf:    3    -2141.018538    -2141.013360    -2141.013360  0.004319 -4.635951  0.010016
   scf:    4    -2141.013417    -2141.013390    -2141.013390  0.000223 -4.635951  0.005878
   scf:    5    -2141.013419    -2141.013407    -2141.013407  0.000302 -4.636453  0.001503
   scf:    6    -2141.013408    -2141.013407    -2141.013407  0.000066 -4.636724  0.000485

SCF Convergence by DM+H criterion
max |DM_out - DM_in|         :     0.0000655501
max |H_out - H_in|      (eV) :     0.0004845374
SCF cycle converged after 6 iterations

Using DM_out to compute the final energy and forces
No. of atoms with KB's overlaping orbs in proc 0. Max # of overlaps:      24     183

siesta: E_KS(eV) =            -2141.0134

siesta: Atomic forces (eV/Ang):
----------------------------------------
   Tot   -0.001657    0.001190   -0.005734
----------------------------------------
   Max    0.439124
   Res    0.178589    sqrt( Sum f_i^2 / 3N )
----------------------------------------
   Max    0.439124    constrained

Stress-tensor-Voigt (kbar):       -1.34       -0.12       -1.34        0.05        0.07        0.02
(Free)E + p*V (eV/cell)    -2136.3446
Target enthalpy (eV/cell)    -2141.0134

                     ====================================
                        Begin Broyden opt. move =      3
                     ====================================

outcoor: Atomic coordinates (Ang):                          
    3.72118111    0.37731700    5.45081604   1       1  C.gga
    2.30523671    0.45593429    5.44071756   1       2  C.gga
    1.61003777    0.53367454    4.20797669   1       3  C.gga
    2.32942794    0.53532149    2.98798372   1       4  C.gga
    3.74437421    0.45628872    2.99753842   1       5  C.gga
    4.43874191    0.37914104    4.22964404   1       6  C.gga
    4.69560677    3.63359335    4.24243945   1       7  C.gga
    3.28080954    3.71264687    4.23285883   1       8  C.gga
    2.58611740    3.78975511    3.00083057   1       9  C.gga
    3.30374563    3.79158879    1.77966750   1      10  C.gga
    4.71956370    3.71297055    1.78969987   1      11  C.gga
    5.41510151    3.63525122    3.02236264   1      12  C.gga
    4.26497314    0.31997454    6.41369212   2      13  H.gga
    1.74380512    0.45487322    6.39451600   2      14  H.gga
    0.50431220    0.59866802    4.19961511   2      15  H.gga
    1.78715076    0.60814542    2.02536501   2      16  H.gga
    4.30662249    0.47495931    2.04432170   2      17  H.gga
    5.54501154    0.32961824    4.23777289   2      18  H.gga
    5.23786151    3.56075493    5.20510796   2      19  H.gga
    2.71847265    3.69395295    5.18610258   2      20  H.gga
    1.47987798    3.83928166    2.99274335   2      21  H.gga
    2.75996301    3.84891599    0.81674359   2      22  H.gga
    5.28108968    3.71401723    0.83604210   2      23  H.gga
    6.52077029    3.57022327    3.03084011   2      24  H.gga

outcell: Unit cell vectors (Ang):
       20.000000    0.000000    0.000000
        0.000000   20.000000    0.000000
        0.000000    0.000000   20.000000

outcell: Cell vector modules (Ang)   :   20.000000   20.000000   20.000000
outcell: Cell angles (23,13,12) (deg):     90.0000     90.0000     90.0000
outcell: Cell volume (Ang**3)        :   8000.0000
<dSpData1D:S at geom step 3
  <sparsity:sparsity for geom step 3
    nrows_g=216 nrows=48 sparsity=.2133 nnzs=9953, refcount: 7>
  <dData1D:(new from dSpData1D) n=9953, refcount: 1>
refcount: 1>
new_DM -- step:     4
Re-using DM from previous geometries...
Number of DMs in history: 1
 DM extrapolation coefficients: 
1   1.00000
New DM after history re-use:
<dSpData2D:SpM extrapolated using coords
  <sparsity:sparsity for geom step 3
    nrows_g=216 nrows=48 sparsity=.2133 nnzs=9953, refcount: 9>
  <dData2D:(temp array for extrapolation) n=9953 m=1, refcount: 1>
refcount: 1>
Note: For starting DM, Qtot, Tr[D*S] =         60.00000000         59.84097800
No. of atoms with KB's overlaping orbs in proc 0. Max # of overlaps:      24     183
New grid distribution:   1
           1       1:  108    1:   54    1:   36
           2       1:  108    1:   54   37:   72
           3       1:  108    1:   54   73:  108
           4       1:  108   55:  108    1:   36
           5       1:  108   55:  108   37:   72
           6       1:  108   55:  108   73:  108

InitMesh: MESH =   216 x   216 x   216 =    10077696
InitMesh: (bp) =   108 x   108 x   108 =     1259712
InitMesh: Mesh cutoff (required, used) =   300.000   322.366 Ry
ExtMesh (bp) on 0 =   188 x   134 x   116 =     2922272
New grid distribution:   2
           1       1:   20   13:  108    1:   20
           2       1:  108    1:   10   21:  108
           3       1:  108    1:   12    1:   20
           4      21:  108   13:  108    1:   20
           5      20:  108   11:  108   21:  108
           6       1:   19   11:  108   21:  108
New grid distribution:   3
           1       1:   26   18:  108    1:   25
           2       1:  108    1:   15   26:  108
           3       1:  108    1:   17    1:   25
           4      27:  108   18:  108    1:   25
           5      24:  108   16:  108   26:  108
           6       1:   23   16:  108   26:  108
Setting up quadratic distribution...
ExtMesh (bp) on 0 =   100 x   176 x   100 =     1760000
PhiOnMesh: Number of (b)points on node 0 =                38400
PhiOnMesh: nlist on node 0 =               743370

        iscf     Eharris(eV)        E_KS(eV)     FreeEng(eV)     dDmax    Ef(eV) dHmax(eV)
   scf:    1    -2141.895195    -2141.071448    -2141.071448  0.016499 -4.546333  0.119007
   scf:    2    -2141.066180    -2141.070671    -2141.070671  0.006178 -4.652717  0.147126
   scf:    3    -2141.073681    -2141.072808    -2141.072808  0.003161 -4.593268  0.013964
   scf:    4    -2141.072854    -2141.072832    -2141.072832  0.000265 -4.594543  0.008559
   scf:    5    -2141.072862    -2141.072849    -2141.072849  0.000433 -4.596604  0.000850
   scf:    6    -2141.072849    -2141.072849    -2141.072849  0.000021 -4.596676  0.000546

SCF Convergence by DM+H criterion
max |DM_out - DM_in|         :     0.0000210300
max |H_out - H_in|      (eV) :     0.0005464111
SCF cycle converged after 6 iterations

Using DM_out to compute the final energy and forces
No. of atoms with KB's overlaping orbs in proc 0. Max # of overlaps:      24     183

siesta: E_KS(eV) =            -2141.0728

siesta: Atomic forces (eV/Ang):
----------------------------------------
   Tot   -0.000029    0.001096   -0.002179
----------------------------------------
   Max    0.059961
   Res    0.026054    sqrt( Sum f_i^2 / 3N )
----------------------------------------
   Max    0.059961    constrained

Stress-tensor-Voigt (kbar):       -0.06       -0.12       -0.11       -0.02        0.02        0.03
(Free)E + p*V (eV/cell)    -2140.5940
Target enthalpy (eV/cell)    -2141.0728

                     ====================================
                        Begin Broyden opt. move =      4
                     ====================================

outcoor: Atomic coordinates (Ang):                          
    3.72079298    0.37712165    5.45139935   1       1  C.gga
    2.30544440    0.45579525    5.44081774   1       2  C.gga
    1.60940920    0.53348777    4.20836724   1       3  C.gga
    2.32968907    0.53490311    2.98751685   1       4  C.gga
    3.74422483    0.45579945    2.99732393   1       5  C.gga
    4.43926749    0.37871696    4.22941565   1       6  C.gga
    4.69542383    3.63400983    4.24288841   1       7  C.gga
    3.28089822    3.71313913    4.23306338   1       8  C.gga
    2.58563171    3.79017894    3.00105343   1       9  C.gga
    3.30406372    3.79178814    1.77908259   1      10  C.gga
    4.71939611    3.71310942    1.78964347   1      11  C.gga
    5.41566704    3.63544123    3.02198026   1      12  C.gga
    4.26540003    0.31986248    6.41439687   2      13  H.gga
    1.74329412    0.45486026    6.39537235   2      14  H.gga
    0.50360041    0.59863757    4.19959309   2      15  H.gga
    1.78679932    0.60814245    2.02470199   2      16  H.gga
    4.30702580    0.47494346    2.04365322   2      17  H.gga
    5.54571792    0.32954364    4.23774689   2      18  H.gga
    5.23820820    3.56075835    5.20576348   2      19  H.gga
    2.71808465    3.69396833    5.18675995   2      20  H.gga
    1.47916176    3.83935517    2.99277420   2      21  H.gga
    2.75954113    3.84902814    0.81604754   2      22  H.gga
    5.28161052    3.71403545    0.83515463   2      23  H.gga
    6.52149968    3.57025360    3.03085115   2      24  H.gga

outcell: Unit cell vectors (Ang):
       20.000000    0.000000    0.000000
        0.000000   20.000000    0.000000
        0.000000    0.000000   20.000000

outcell: Cell vector modules (Ang)   :   20.000000   20.000000   20.000000
outcell: Cell angles (23,13,12) (deg):     90.0000     90.0000     90.0000
outcell: Cell volume (Ang**3)        :   8000.0000
<dSpData1D:S at geom step 4
  <sparsity:sparsity for geom step 4
    nrows_g=216 nrows=48 sparsity=.2133 nnzs=9950, refcount: 7>
  <dData1D:(new from dSpData1D) n=9950, refcount: 1>
refcount: 1>
new_DM -- step:     5
Re-using DM from previous geometries...
Number of DMs in history: 1
 DM extrapolation coefficients: 
1   1.00000
New DM after history re-use:
<dSpData2D:SpM extrapolated using coords
  <sparsity:sparsity for geom step 4
    nrows_g=216 nrows=48 sparsity=.2133 nnzs=9950, refcount: 9>
  <dData2D:(temp array for extrapolation) n=9950 m=1, refcount: 1>
refcount: 1>
No. of atoms with KB's overlaping orbs in proc 0. Max # of overlaps:      24     183
New grid distribution:   1
           1       1:  108    1:   54    1:   36
           2       1:  108    1:   54   37:   72
           3       1:  108    1:   54   73:  108
           4       1:  108   55:  108    1:   36
           5       1:  108   55:  108   37:   72
           6       1:  108   55:  108   73:  108

InitMesh: MESH =   216 x   216 x   216 =    10077696
InitMesh: (bp) =   108 x   108 x   108 =     1259712
InitMesh: Mesh cutoff (required, used) =   300.000   322.366 Ry
ExtMesh (bp) on 0 =   188 x   134 x   116 =     2922272
New grid distribution:   2
           1       1:   20   13:  108    1:   20
           2       1:  108    1:   10   21:  108
           3       1:  108    1:   12    1:   20
           4      21:  108   13:  108    1:   20
           5      20:  108   11:  108   21:  108
           6       1:   19   11:  108   21:  108
New grid distribution:   3
           1       1:   26   18:  108    1:   25
           2       1:  108    1:   15   26:  108
           3       1:  108    1:   17    1:   25
           4      27:  108   18:  108    1:   25
           5      24:  108   16:  108   26:  108
           6       1:   23   16:  108   26:  108
Setting up quadratic distribution...
ExtMesh (bp) on 0 =   100 x   176 x   100 =     1760000
PhiOnMesh: Number of (b)points on node 0 =                38400
PhiOnMesh: nlist on node 0 =               743323

        iscf     Eharris(eV)        E_KS(eV)     FreeEng(eV)     dDmax    Ef(eV) dHmax(eV)
   scf:    1    -2141.103690    -2141.073265    -2141.073265  0.001021 -4.593379  0.009102
   scf:    2    -2141.073217    -2141.073255    -2141.073255  0.000357 -4.599218  0.014149
   scf:    3    -2141.073278    -2141.073272    -2141.073272  0.000215 -4.595814  0.001250
   scf:    4    -2141.073272    -2141.073272    -2141.073272  0.000016 -4.595873  0.000769

SCF Convergence by DM+H criterion
max |DM_out - DM_in|         :     0.0000155031
max |H_out - H_in|      (eV) :     0.0007693869
SCF cycle converged after 4 iterations

Using DM_out to compute the final energy and forces
No. of atoms with KB's overlaping orbs in proc 0. Max # of overlaps:      24     183

siesta: E_KS(eV) =            -2141.0733

siesta: Atomic forces (eV/Ang):
----------------------------------------
   Tot   -0.000369    0.000718   -0.001961
----------------------------------------
   Max    0.040067
   Res    0.014304    sqrt( Sum f_i^2 / 3N )
----------------------------------------
   Max    0.040067    constrained

Stress-tensor-Voigt (kbar):       -0.03       -0.12       -0.04       -0.02        0.02        0.01
(Free)E + p*V (eV/cell)    -2140.7484
Target enthalpy (eV/cell)    -2141.0733

                     ====================================
                        Begin Broyden opt. move =      5
                     ====================================

outcoor: Atomic coordinates (Ang):                          
    3.72071889    0.37664295    5.45160759   1       1  C.gga
    2.30528156    0.45545188    5.44107997   1       2  C.gga
    1.60926653    0.53299121    4.20851740   1       3  C.gga
    2.32962078    0.53393969    2.98755544   1       4  C.gga
    3.74428740    0.45471566    2.99717703   1       5  C.gga
    4.43920475    0.37778495    4.22946702   1       6  C.gga
    4.69550236    3.63497456    4.24285248   1       7  C.gga
    3.28084689    3.71422213    4.23319464   1       8  C.gga
    2.58568467    3.79111642    3.00099552   1       9  C.gga
    3.30411079    3.79226528    1.77887500   1      10  C.gga
    4.71954025    3.71346118    1.78939492   1      11  C.gga
    5.41580189    3.63593262    3.02185332   1      12  C.gga
    4.26573671    0.31966678    6.41503080   2      13  H.gga
    1.74290668    0.45484355    6.39607198   2      14  H.gga
    0.50290223    0.59850748    4.19959697   2      15  H.gga
    1.78658357    0.60802712    2.02415286   2      16  H.gga
    4.30726423    0.47483868    2.04322401   2      17  H.gga
    5.54640151    0.32938605    4.23766960   2      18  H.gga
    5.23842880    3.56087295    5.20631037   2      19  H.gga
    2.71785746    3.69407196    5.18718633   2      20  H.gga
    1.47849103    3.83950893    2.99286165   2      21  H.gga
    2.75919974    3.84922592    0.81541787   2      22  H.gga
    5.28201939    3.71406534    0.83439973   2      23  H.gga
    6.52218413    3.57038641    3.03081904   2      24  H.gga

outcell: Unit cell vectors (Ang):
       20.000000    0.000000    0.000000
        0.000000   20.000000    0.000000
        0.000000    0.000000   20.000000

outcell: Cell vector modules (Ang)   :   20.000000   20.000000   20.000000
outcell: Cell angles (23,13,12) (deg):     90.0000     90.0000     90.0000
outcell: Cell volume (Ang**3)        :   8000.0000
<dSpData1D:S at geom step 5
  <sparsity:sparsity for geom step 5
    nrows_g=216 nrows=48 sparsity=.2133 nnzs=9950, refcount: 7>
  <dData1D:(new from dSpData1D) n=9950, refcount: 1>
refcount: 1>
new_DM -- step:     6
Re-using DM from previous geometries...
Number of DMs in history: 1
 DM extrapolation coefficients: 
1   1.00000
New DM after history re-use:
<dSpData2D:SpM extrapolated using coords
  <sparsity:sparsity for geom step 5
    nrows_g=216 nrows=48 sparsity=.2133 nnzs=9950, refcount: 9>
  <dData2D:(temp array for extrapolation) n=9950 m=1, refcount: 1>
refcount: 1>
No. of atoms with KB's overlaping orbs in proc 0. Max # of overlaps:      24     183
New grid distribution:   1
           1       1:  108    1:   54    1:   36
           2       1:  108    1:   54   37:   72
           3       1:  108    1:   54   73:  108
           4       1:  108   55:  108    1:   36
           5       1:  108   55:  108   37:   72
           6       1:  108   55:  108   73:  108

InitMesh: MESH =   216 x   216 x   216 =    10077696
InitMesh: (bp) =   108 x   108 x   108 =     1259712
InitMesh: Mesh cutoff (required, used) =   300.000   322.366 Ry
ExtMesh (bp) on 0 =   188 x   134 x   116 =     2922272
New grid distribution:   2
           1       1:   20   13:  108    1:   20
           2       1:  108    1:   10   21:  108
           3       1:  108    1:   12    1:   20
           4      21:  108   13:  108    1:   20
           5      20:  108   11:  108   21:  108
           6       1:   19   11:  108   21:  108
New grid distribution:   3
           1       1:   26   18:  108    1:   25
           2       1:  108    1:   15   26:  108
           3       1:  108    1:   17    1:   25
           4      27:  108   18:  108    1:   25
           5      24:  108   16:  108   26:  108
           6       1:   23   16:  108   26:  108
Setting up quadratic distribution...
ExtMesh (bp) on 0 =   100 x   176 x   100 =     1760000
PhiOnMesh: Number of (b)points on node 0 =                38400
PhiOnMesh: nlist on node 0 =               743367

        iscf     Eharris(eV)        E_KS(eV)     FreeEng(eV)     dDmax    Ef(eV) dHmax(eV)
   scf:    1    -2141.097143    -2141.073587    -2141.073587  0.000747 -4.592634  0.012000
   scf:    2    -2141.073496    -2141.073567    -2141.073567  0.000375 -4.602242  0.020403
   scf:    3    -2141.073611    -2141.073599    -2141.073599  0.000241 -4.596473  0.000587
   scf:    4    -2141.073599    -2141.073599    -2141.073599  0.000008 -4.596534  0.000394

SCF Convergence by DM+H criterion
max |DM_out - DM_in|         :     0.0000078295
max |H_out - H_in|      (eV) :     0.0003942116
SCF cycle converged after 4 iterations

Using DM_out to compute the final energy and forces
No. of atoms with KB's overlaping orbs in proc 0. Max # of overlaps:      24     183

siesta: E_KS(eV) =            -2141.0736

siesta: Atomic forces (eV/Ang):
----------------------------------------
   Tot   -0.000418    0.000567   -0.002066
----------------------------------------
   Max    0.036651
   Res    0.011920    sqrt( Sum f_i^2 / 3N )
----------------------------------------
   Max    0.036651    constrained

Stress-tensor-Voigt (kbar):       -0.00       -0.12       -0.01       -0.02        0.02        0.01
(Free)E + p*V (eV/cell)    -2140.8614
Target enthalpy (eV/cell)    -2141.0736

                     ====================================
                        Begin Broyden opt. move =      6
                     ====================================

outcoor: Atomic coordinates (Ang):                          
    3.72042768    0.37525144    5.45177939   1       1  C.gga
    2.30506539    0.45441133    5.44144523   1       2  C.gga
    1.60922712    0.53151961    4.20879845   1       3  C.gga
    2.32959532    0.53133347    2.98787359   1       4  C.gga
    3.74397884    0.45184548    2.99752387   1       5  C.gga
    4.43889410    0.37528588    4.22960352   1       6  C.gga
    4.69553100    3.63758000    4.24256065   1       7  C.gga
    3.28116729    3.71708421    4.23283955   1       8  C.gga
    2.58598979    3.79363174    3.00086399   1       9  C.gga
    3.30437228    3.79365661    1.77870253   1      10  C.gga
    4.71975518    3.71452226    1.78898522   1      11  C.gga
    5.41582629    3.63738998    3.02156985   1      12  C.gga
    4.26595248    0.31918958    6.41556153   2      13  H.gga
    1.74251524    0.45481627    6.39686578   2      14  H.gga
    0.50241012    0.59804878    4.19963943   2      15  H.gga
    1.78667068    0.60751127    2.02395490   2      16  H.gga
    4.30733917    0.47439754    2.04303204   2      17  H.gga
    5.54671404    0.32892535    4.23750440   2      18  H.gga
    5.23835830    3.56138790    5.20650681   2      19  H.gga
    2.71781629    3.69450837    5.18736623   2      20  H.gga
    1.47819399    3.83996038    2.99305778   2      21  H.gga
    2.75895697    3.84970973    0.81487202   2      22  H.gga
    5.28241785    3.71412982    0.83354813   2      23  H.gga
    6.52263864    3.57085223    3.03070204   2      24  H.gga

outcell: Unit cell vectors (Ang):
       20.000000    0.000000    0.000000
        0.000000   20.000000    0.000000
        0.000000    0.000000   20.000000

outcell: Cell vector modules (Ang)   :   20.000000   20.000000   20.000000
outcell: Cell angles (23,13,12) (deg):     90.0000     90.0000     90.0000
outcell: Cell volume (Ang**3)        :   8000.0000
<dSpData1D:S at geom step 6
  <sparsity:sparsity for geom step 6
    nrows_g=216 nrows=48 sparsity=.2133 nnzs=9950, refcount: 7>
  <dData1D:(new from dSpData1D) n=9950, refcount: 1>
refcount: 1>
new_DM -- step:     7
Re-using DM from previous geometries...
Number of DMs in history: 1
 DM extrapolation coefficients: 
1   1.00000
New DM after history re-use:
<dSpData2D:SpM extrapolated using coords
  <sparsity:sparsity for geom step 6
    nrows_g=216 nrows=48 sparsity=.2133 nnzs=9950, refcount: 9>
  <dData2D:(temp array for extrapolation) n=9950 m=1, refcount: 1>
refcount: 1>
No. of atoms with KB's overlaping orbs in proc 0. Max # of overlaps:      24     183
New grid distribution:   1
           1       1:  108    1:   54    1:   36
           2       1:  108    1:   54   37:   72
           3       1:  108    1:   54   73:  108
           4       1:  108   55:  108    1:   36
           5       1:  108   55:  108   37:   72
           6       1:  108   55:  108   73:  108

InitMesh: MESH =   216 x   216 x   216 =    10077696
InitMesh: (bp) =   108 x   108 x   108 =     1259712
InitMesh: Mesh cutoff (required, used) =   300.000   322.366 Ry
ExtMesh (bp) on 0 =   188 x   134 x   116 =     2922272
New grid distribution:   2
           1       1:   20   13:  108    1:   20
           2       1:  108    1:   10   21:  108
           3       1:  108    1:   12    1:   20
           4      21:  108   13:  108    1:   20
           5      20:  108   11:  108   21:  108
           6       1:   19   11:  108   21:  108
New grid distribution:   3
           1       1:   26   18:  108    1:   25
           2       1:  108    1:   15   26:  108
           3       1:  108    1:   17    1:   25
           4      27:  108   18:  108    1:   25
           5      24:  108   16:  108   26:  108
           6       1:   23   16:  108   26:  108
Setting up quadratic distribution...
ExtMesh (bp) on 0 =   100 x   176 x   100 =     1760000
PhiOnMesh: Number of (b)points on node 0 =                38400
PhiOnMesh: nlist on node 0 =               743515

        iscf     Eharris(eV)        E_KS(eV)     FreeEng(eV)     dDmax    Ef(eV) dHmax(eV)
   scf:    1    -2141.090009    -2141.074181    -2141.074181  0.000883 -4.594157  0.016078
   scf:    2    -2141.073972    -2141.074136    -2141.074136  0.000452 -4.607754  0.030355
   scf:    3    -2141.074237    -2141.074209    -2141.074209  0.000303 -4.599450  0.000700
   scf:    4    -2141.074210    -2141.074209    -2141.074209  0.000007 -4.599538  0.000407

SCF Convergence by DM+H criterion
max |DM_out - DM_in|         :     0.0000072594
max |H_out - H_in|      (eV) :     0.0004066949
SCF cycle converged after 4 iterations

Using DM_out to compute the final energy and forces
No. of atoms with KB's overlaping orbs in proc 0. Max # of overlaps:      24     183

siesta: E_KS(eV) =            -2141.0742

siesta: Atomic forces (eV/Ang):
----------------------------------------
   Tot   -0.000705    0.000411   -0.001640
----------------------------------------
   Max    0.028388
   Res    0.017223    sqrt( Sum f_i^2 / 3N )
----------------------------------------
   Max    0.028388    constrained

Stress-tensor-Voigt (kbar):        0.01       -0.11        0.01       -0.02        0.02        0.00
(Free)E + p*V (eV/cell)    -2140.9227
Target enthalpy (eV/cell)    -2141.0742

                     ====================================
                        Begin Broyden opt. move =      7
                     ====================================

outcoor: Atomic coordinates (Ang):                          
    3.72033608    0.37351034    5.45218074   1       1  C.gga
    2.30474380    0.45312586    5.44196117   1       2  C.gga
    1.60888546    0.52972814    4.20907678   1       3  C.gga
    2.32922897    0.52848890    2.98802227   1       4  C.gga
    3.74392266    0.44866966    2.99752051   1       5  C.gga
    4.43884054    0.37249702    4.22992815   1       6  C.gga
    4.69590667    3.64041988    4.24239523   1       7  C.gga
    3.28123350    3.72025666    4.23284517   1       8  C.gga
    2.58606058    3.79642903    3.00055288   1       9  C.gga
    3.30445955    3.79540327    1.77827378   1      10  C.gga
    4.72007099    3.71582381    1.78845202   1      11  C.gga
    5.41611851    3.63917213    3.02125398   1      12  C.gga
    4.26591376    0.31864360    6.41572250   2      13  H.gga
    1.74230539    0.45479147    6.39737771   2      14  H.gga
    0.50238598    0.59745762    4.19971350   2      15  H.gga
    1.78700756    0.60673430    2.02423985   2      16  H.gga
    4.30708787    0.47370026    2.04338385   2      17  H.gga
    5.54648445    0.32828109    4.23736837   2      18  H.gga
    5.23804470    3.56216250    5.20623004   2      19  H.gga
    2.71809723    3.69519962    5.18701174   2      20  H.gga
    1.47841856    3.84059734    2.99322986   2      21  H.gga
    2.75896056    3.85026342    0.81470011   2      22  H.gga
    5.28261944    3.71419803    0.83299626   2      23  H.gga
    6.52263957    3.57144960    3.03054813   2      24  H.gga

outcell: Unit cell vectors (Ang):
       20.000000    0.000000    0.000000
        0.000000   20.000000    0.000000
        0.000000    0.000000   20.000000

outcell: Cell vector modules (Ang)   :   20.000000   20.000000   20.000000
outcell: Cell angles (23,13,12) (deg):     90.0000     90.0000     90.0000
outcell: Cell volume (Ang**3)        :   8000.0000
<dSpData1D:S at geom step 7
  <sparsity:sparsity for geom step 7
    nrows_g=216 nrows=48 sparsity=.2133 nnzs=9950, refcount: 7>
  <dData1D:(new from dSpData1D) n=9950, refcount: 1>
refcount: 1>
new_DM -- step:     8
Re-using DM from previous geometries...
Number of DMs in history: 1
 DM extrapolation coefficients: 
1   1.00000
New DM after history re-use:
<dSpData2D:SpM extrapolated using coords
  <sparsity:sparsity for geom step 7
    nrows_g=216 nrows=48 sparsity=.2133 nnzs=9950, refcount: 9>
  <dData2D:(temp array for extrapolation) n=9950 m=1, refcount: 1>
refcount: 1>
No. of atoms with KB's overlaping orbs in proc 0. Max # of overlaps:      24     183
New grid distribution:   1
           1       1:  108    1:   54    1:   36
           2       1:  108    1:   54   37:   72
           3       1:  108    1:   54   73:  108
           4       1:  108   55:  108    1:   36
           5       1:  108   55:  108   37:   72
           6       1:  108   55:  108   73:  108

InitMesh: MESH =   216 x   216 x   216 =    10077696
InitMesh: (bp) =   108 x   108 x   108 =     1259712
InitMesh: Mesh cutoff (required, used) =   300.000   322.366 Ry
ExtMesh (bp) on 0 =   188 x   134 x   116 =     2922272
New grid distribution:   2
           1       1:   20   13:  108    1:   20
           2       1:  108    1:   10   21:  108
           3       1:  108    1:   12    1:   20
           4      21:  108   13:  108    1:   20
           5      20:  108   11:  108   21:  108
           6       1:   19   11:  108   21:  108
New grid distribution:   3
           1       1:   26   18:  108    1:   25
           2       1:  108    1:   15   26:  108
           3       1:  108    1:   17    1:   25
           4      27:  108   18:  108    1:   25
           5      24:  108   16:  108   26:  108
           6       1:   23   16:  108   26:  108
Setting up quadratic distribution...
ExtMesh (bp) on 0 =   100 x   176 x   100 =     1760000
PhiOnMesh: Number of (b)points on node 0 =                38400
PhiOnMesh: nlist on node 0 =               743674

        iscf     Eharris(eV)        E_KS(eV)     FreeEng(eV)     dDmax    Ef(eV) dHmax(eV)
   scf:    1    -2141.083504    -2141.074933    -2141.074933  0.000885 -4.600805  0.003793
   scf:    2    -2141.074886    -2141.074926    -2141.074926  0.000188 -4.599112  0.005622
   scf:    3    -2141.074953    -2141.074945    -2141.074945  0.000117 -4.600196  0.000451
   scf:    4    -2141.074945    -2141.074945    -2141.074945  0.000008 -4.600265  0.000280

SCF Convergence by DM+H criterion
max |DM_out - DM_in|         :     0.0000082168
max |H_out - H_in|      (eV) :     0.0002798817
SCF cycle converged after 4 iterations

Using DM_out to compute the final energy and forces
No. of atoms with KB's overlaping orbs in proc 0. Max # of overlaps:      24     183

siesta: E_KS(eV) =            -2141.0749

siesta: Atomic forces (eV/Ang):
----------------------------------------
   Tot   -0.000385    0.000082   -0.001709
----------------------------------------
   Max    0.022446
   Res    0.011490    sqrt( Sum f_i^2 / 3N )
----------------------------------------
   Max    0.022446    constrained

Stress-tensor-Voigt (kbar):        0.02       -0.11        0.01       -0.02        0.02        0.00
(Free)E + p*V (eV/cell)    -2140.9454
Target enthalpy (eV/cell)    -2141.0749

                     ====================================
                        Begin Broyden opt. move =      8
                     ====================================

outcoor: Atomic coordinates (Ang):                          
    3.72025521    0.37230475    5.45230677   1       1  C.gga
    2.30461761    0.45220042    5.44215033   1       2  C.gga
    1.60881887    0.52848576    4.20921840   1       3  C.gga
    2.32916656    0.52689423    2.98825986   1       4  C.gga
    3.74373866    0.44690996    2.99778410   1       5  C.gga
    4.43862689    0.37093620    4.23003946   1       6  C.gga
    4.69596630    3.64200994    4.24214258   1       7  C.gga
    3.28144788    3.72201003    4.23258256   1       8  C.gga
    2.58627826    3.79798867    3.00042455   1       9  C.gga
    3.30455248    3.79662107    1.77813497   1      10  C.gga
    4.72015912    3.71675394    1.78822510   1      11  C.gga
    5.41620339    3.64040723    3.02109275   1      12  C.gga
    4.26567155    0.31828251    6.41551929   2      13  H.gga
    1.74243086    0.45477560    6.39727659   2      14  H.gga
    0.50273314    0.59701736    4.19980345   2      15  H.gga
    1.78730636    0.60602517    2.02475766   2      16  H.gga
    4.30673791    0.47300735    2.04394237   2      17  H.gga
    5.54595782    0.32769711    4.23738336   2      18  H.gga
    5.23775869    3.56287046    5.20570929   2      19  H.gga
    2.71845295    3.69588822    5.18646564   2      20  H.gga
    1.47894660    3.84117817    2.99323680   2      21  H.gga
    2.75917855    3.85063024    0.81490119   2      22  H.gga
    5.28247416    3.71424065    0.83310614   2      23  H.gga
    6.52226795    3.57189324    3.03041364   2      24  H.gga

outcell: Unit cell vectors (Ang):
       20.000000    0.000000    0.000000
        0.000000   20.000000    0.000000
        0.000000    0.000000   20.000000

outcell: Cell vector modules (Ang)   :   20.000000   20.000000   20.000000
outcell: Cell angles (23,13,12) (deg):     90.0000     90.0000     90.0000
outcell: Cell volume (Ang**3)        :   8000.0000
<dSpData1D:S at geom step 8
  <sparsity:sparsity for geom step 8
    nrows_g=216 nrows=48 sparsity=.2133 nnzs=9950, refcount: 7>
  <dData1D:(new from dSpData1D) n=9950, refcount: 1>
refcount: 1>
new_DM -- step:     9
Re-using DM from previous geometries...
Number of DMs in history: 1
 DM extrapolation coefficients: 
1   1.00000
New DM after history re-use:
<dSpData2D:SpM extrapolated using coords
  <sparsity:sparsity for geom step 8
    nrows_g=216 nrows=48 sparsity=.2133 nnzs=9950, refcount: 9>
  <dData2D:(temp array for extrapolation) n=9950 m=1, refcount: 1>
refcount: 1>
No. of atoms with KB's overlaping orbs in proc 0. Max # of overlaps:      24     183
New grid distribution:   1
           1       1:  108    1:   54    1:   36
           2       1:  108    1:   54   37:   72
           3       1:  108    1:   54   73:  108
           4       1:  108   55:  108    1:   36
           5       1:  108   55:  108   37:   72
           6       1:  108   55:  108   73:  108

InitMesh: MESH =   216 x   216 x   216 =    10077696
InitMesh: (bp) =   108 x   108 x   108 =     1259712
InitMesh: Mesh cutoff (required, used) =   300.000   322.366 Ry
ExtMesh (bp) on 0 =   188 x   134 x   116 =     2922272
New grid distribution:   2
           1       1:   20   13:  108    1:   20
           2       1:  108    1:   10   21:  108
           3       1:  108    1:   12    1:   20
           4      21:  108   13:  108    1:   20
           5      20:  108   11:  108   21:  108
           6       1:   19   11:  108   21:  108
New grid distribution:   3
           1       1:   26   18:  108    1:   25
           2       1:  108    1:   15   26:  108
           3       1:  108    1:   17    1:   25
           4      27:  108   18:  108    1:   25
           5      24:  108   16:  108   26:  108
           6       1:   23   16:  108   26:  108
Setting up quadratic distribution...
ExtMesh (bp) on 0 =   100 x   176 x   100 =     1760000
PhiOnMesh: Number of (b)points on node 0 =                38400
PhiOnMesh: nlist on node 0 =               743816

        iscf     Eharris(eV)        E_KS(eV)     FreeEng(eV)     dDmax    Ef(eV) dHmax(eV)
   scf:    1    -2141.065170    -2141.075357    -2141.075357  0.000392 -4.602821  0.005173
   scf:    2    -2141.075331    -2141.075353    -2141.075353  0.000198 -4.599406  0.009621
   scf:    3    -2141.075366    -2141.075362    -2141.075362  0.000127 -4.601431  0.000211
   scf:    4    -2141.075362    -2141.075362    -2141.075362  0.000005 -4.601419  0.000139

SCF Convergence by DM+H criterion
max |DM_out - DM_in|         :     0.0000047046
max |H_out - H_in|      (eV) :     0.0001385069
SCF cycle converged after 4 iterations

Using DM_out to compute the final energy and forces
No. of atoms with KB's overlaping orbs in proc 0. Max # of overlaps:      24     183

siesta: E_KS(eV) =            -2141.0754

siesta: Atomic forces (eV/Ang):
----------------------------------------
   Tot   -0.000586    0.000936   -0.002006
----------------------------------------
   Max    0.020443
   Res    0.009124    sqrt( Sum f_i^2 / 3N )
----------------------------------------
   Max    0.020443    constrained

Stress-tensor-Voigt (kbar):       -0.00       -0.11       -0.01       -0.02        0.02        0.00
(Free)E + p*V (eV/cell)    -2140.8809
Target enthalpy (eV/cell)    -2141.0754

                     ====================================
                        Begin Broyden opt. move =      9
                     ====================================

outcoor: Atomic coordinates (Ang):                          
    3.72016212    0.37149992    5.45239993   1       1  C.gga
    2.30456733    0.45154456    5.44227954   1       2  C.gga
    1.60874345    0.52766486    4.20933027   1       3  C.gga
    2.32906572    0.52598013    2.98834862   1       4  C.gga
    3.74364253    0.44592135    2.99786999   1       5  C.gga
    4.43859496    0.37002094    4.23016986   1       6  C.gga
    4.69609833    3.64291830    4.24204824   1       7  C.gga
    3.28152624    3.72300589    4.23248795   1       8  C.gga
    2.58631635    3.79890111    3.00030504   1       9  C.gga
    3.30461609    3.79744027    1.77802604   1      10  C.gga
    4.72022419    3.71740807    1.78810356   1      11  C.gga
    5.41625516    3.64122999    3.02094541   1      12  C.gga
    4.26565956    0.31799726    6.41566879   2      13  H.gga
    1.74239137    0.45474721    6.39741604   2      14  H.gga
    0.50265839    0.59670970    4.19987916   2      15  H.gga
    1.78732496    0.60547322    2.02487008   2      16  H.gga
    4.30665262    0.47242748    2.04407552   2      17  H.gga
    5.54587600    0.32719508    4.23743986   2      18  H.gga
    5.23774401    3.56342311    5.20558278   2      19  H.gga
    2.71854724    3.69646557    5.18632946   2      20  H.gga
    1.47903179    3.84167873    2.99319038   2      21  H.gga
    2.75917693    3.85092024    0.81475142   2      22  H.gga
    5.28249944    3.71428555    0.83296527   2      23  H.gga
    6.52235225    3.57220101    3.03031276   2      24  H.gga

outcell: Unit cell vectors (Ang):
       20.000000    0.000000    0.000000
        0.000000   20.000000    0.000000
        0.000000    0.000000   20.000000

outcell: Cell vector modules (Ang)   :   20.000000   20.000000   20.000000
outcell: Cell angles (23,13,12) (deg):     90.0000     90.0000     90.0000
outcell: Cell volume (Ang**3)        :   8000.0000
<dSpData1D:S at geom step 9
  <sparsity:sparsity for geom step 9
    nrows_g=216 nrows=48 sparsity=.2133 nnzs=9950, refcount: 7>
  <dData1D:(new from dSpData1D) n=9950, refcount: 1>
refcount: 1>
new_DM -- step:    10
Re-using DM from previous geometries...
Number of DMs in history: 1
 DM extrapolation coefficients: 
1   1.00000
New DM after history re-use:
<dSpData2D:SpM extrapolated using coords
  <sparsity:sparsity for geom step 9
    nrows_g=216 nrows=48 sparsity=.2133 nnzs=9950, refcount: 9>
  <dData2D:(temp array for extrapolation) n=9950 m=1, refcount: 1>
refcount: 1>
No. of atoms with KB's overlaping orbs in proc 0. Max # of overlaps:      24     183
New grid distribution:   1
           1       1:  108    1:   54    1:   36
           2       1:  108    1:   54   37:   72
           3       1:  108    1:   54   73:  108
           4       1:  108   55:  108    1:   36
           5       1:  108   55:  108   37:   72
           6       1:  108   55:  108   73:  108

InitMesh: MESH =   216 x   216 x   216 =    10077696
InitMesh: (bp) =   108 x   108 x   108 =     1259712
InitMesh: Mesh cutoff (required, used) =   300.000   322.366 Ry
ExtMesh (bp) on 0 =   188 x   134 x   116 =     2922272
New grid distribution:   2
           1       1:   20   13:  108    1:   20
           2       1:  108    1:   10   21:  108
           3       1:  108    1:   12    1:   20
           4      21:  108   13:  108    1:   20
           5      20:  108   11:  108   21:  108
           6       1:   19   11:  108   21:  108
New grid distribution:   3
           1       1:   26   18:  108    1:   25
           2       1:  108    1:   15   26:  108
           3       1:  108    1:   17    1:   25
           4      27:  108   18:  108    1:   25
           5      24:  108   16:  108   26:  108
           6       1:   23   16:  108   26:  108
Setting up quadratic distribution...
ExtMesh (bp) on 0 =   100 x   176 x   100 =     1760000
PhiOnMesh: Number of (b)points on node 0 =                38400
PhiOnMesh: nlist on node 0 =               743871

        iscf     Eharris(eV)        E_KS(eV)     FreeEng(eV)     dDmax    Ef(eV) dHmax(eV)
   scf:    1    -2141.077859    -2141.075609    -2141.075609  0.000229 -4.601492  0.001143
   scf:    2    -2141.075606    -2141.075609    -2141.075609  0.000042 -4.602182  0.001835
   scf:    3    -2141.075610    -2141.075610    -2141.075610  0.000023 -4.601787  0.000128

SCF Convergence by DM+H criterion
max |DM_out - DM_in|         :     0.0000229957
max |H_out - H_in|      (eV) :     0.0001282369
SCF cycle converged after 3 iterations

Using DM_out to compute the final energy and forces
No. of atoms with KB's overlaping orbs in proc 0. Max # of overlaps:      24     183

siesta: E_KS(eV) =            -2141.0756

siesta: Atomic forces (eV/Ang):
----------------------------------------
   Tot   -0.000400    0.000804   -0.002203
----------------------------------------
   Max    0.019737
   Res    0.008921    sqrt( Sum f_i^2 / 3N )
----------------------------------------
   Max    0.019737    constrained

Stress-tensor-Voigt (kbar):       -0.00       -0.10       -0.01       -0.02        0.02        0.00
(Free)E + p*V (eV/cell)    -2140.8845
Target enthalpy (eV/cell)    -2141.0756

                     ====================================
                        Begin Broyden opt. move =     10
                     ====================================

outcoor: Atomic coordinates (Ang):                          
    3.72007623    0.36961759    5.45269097   1       1  C.gga
    2.30441540    0.44993292    5.44248093   1       2  C.gga
    1.60854780    0.52577619    4.20957423   1       3  C.gga
    2.32885840    0.52404601    2.98861853   1       4  C.gga
    3.74345913    0.44391610    2.99818546   1       5  C.gga
    4.43838434    0.36807779    4.23040238   1       6  C.gga
    4.69626819    3.64484662    4.24172535   1       7  C.gga
    3.28178361    3.72502315    4.23218033   1       8  C.gga
    2.58650080    3.80084207    3.00005091   1       9  C.gga
    3.30471977    3.79935294    1.77774564   1      10  C.gga
    4.72029515    3.71902566    1.78785951   1      11  C.gga
    5.41648751    3.64311571    3.02068162   1      12  C.gga
    4.26554881    0.31726322    6.41594432   2      13  H.gga
    1.74235562    0.45463029    6.39766755   2      14  H.gga
    0.50255650    0.59590489    4.20010166   2      15  H.gga
    1.78727026    0.60399258    2.02513813   2      16  H.gga
    4.30644449    0.47083389    2.04440189   2      17  H.gga
    5.54570433    0.32582358    4.23766570   2      18  H.gga
    5.23782641    3.56490472    5.20529011   2      19  H.gga
    2.71877181    3.69804980    5.18599212   2      20  H.gga
    1.47921091    3.84304796    2.99298659   2      21  H.gga
    2.75923932    3.85167005    0.81445413   2      22  H.gga
    5.28250400    3.71443786    0.83272021   2      23  H.gga
    6.52245351    3.57300627    3.03003118   2      24  H.gga

outcell: Unit cell vectors (Ang):
       20.000000    0.000000    0.000000
        0.000000   20.000000    0.000000
        0.000000    0.000000   20.000000

outcell: Cell vector modules (Ang)   :   20.000000   20.000000   20.000000
outcell: Cell angles (23,13,12) (deg):     90.0000     90.0000     90.0000
outcell: Cell volume (Ang**3)        :   8000.0000
<dSpData1D:S at geom step 10
  <sparsity:sparsity for geom step 10
    nrows_g=216 nrows=48 sparsity=.2132 nnzs=9949, refcount: 7>
  <dData1D:(new from dSpData1D) n=9949, refcount: 1>
refcount: 1>
new_DM -- step:    11
Re-using DM from previous geometries...
Number of DMs in history: 1
 DM extrapolation coefficients: 
1   1.00000
New DM after history re-use:
[...]
                        Begin Broyden opt. move =     17
                     ====================================

outcoor: Atomic coordinates (Ang):                          
    3.71784348    0.34944130    5.45667469   1       1  C.gga
    2.30245670    0.43204926    5.44639413   1       2  C.gga
    1.60661293    0.50588105    4.21343251   1       3  C.gga
    2.32654603    0.50044894    2.99224225   1       4  C.gga
    3.74118761    0.41976490    3.00204693   1       5  C.gga
    4.43623082    0.34438923    4.23445995   1       6  C.gga
    4.69868376    3.66827473    4.23754741   1       7  C.gga
    3.28405707    3.74907791    4.22811058   1       8  C.gga
    2.58835699    3.82452704    2.99601632   1       9  C.gga
    3.30646265    3.81962394    1.77364923   1      10  C.gga
    4.72185629    3.73712021    1.78343715   1      11  C.gga
    5.41824006    3.66307256    3.01610568   1      12  C.gga
    4.26288725    0.29874021    6.42022329   2      13  H.gga
    1.74083947    0.44342234    6.40172532   2      14  H.gga
    0.50070621    0.57682372    4.20480603   2      15  H.gga
    1.78382895    0.57540527    2.02884485   2      16  H.gga
    4.30429470    0.44074730    2.04806117   2      17  H.gga
    5.54348261    0.29806318    4.24261381   2      18  H.gga
    5.24164333    3.59334623    5.20087772   2      19  H.gga
    2.72148229    3.72804319    5.18237327   2      20  H.gga
    1.48113137    3.87094918    2.98840823   2      21  H.gga
    2.76128007    3.87056558    0.81022156   2      22  H.gga
    5.28337776    3.72597197    0.82798326   2      23  H.gga
    6.52409380    3.59217574    3.02436687   2      24  H.gga

outcell: Unit cell vectors (Ang):
       20.000000    0.000000    0.000000
        0.000000   20.000000    0.000000
        0.000000    0.000000   20.000000

outcell: Cell vector modules (Ang)   :   20.000000   20.000000   20.000000
outcell: Cell angles (23,13,12) (deg):     90.0000     90.0000     90.0000
outcell: Cell volume (Ang**3)        :   8000.0000
<dSpData1D:S at geom step 17
  <sparsity:sparsity for geom step 17
    nrows_g=216 nrows=48 sparsity=.2132 nnzs=9948, refcount: 7>
  <dData1D:(new from dSpData1D) n=9948, refcount: 1>
refcount: 1>
new_DM -- step:    18
Re-using DM from previous geometries...
Number of DMs in history: 1
 DM extrapolation coefficients: 
1   1.00000
New DM after history re-use:
<dSpData2D:SpM extrapolated using coords
  <sparsity:sparsity for geom step 17
    nrows_g=216 nrows=48 sparsity=.2132 nnzs=9948, refcount: 9>
  <dData2D:(temp array for extrapolation) n=9948 m=1, refcount: 1>
refcount: 1>
No. of atoms with KB's overlaping orbs in proc 0. Max # of overlaps:      24     183
New grid distribution:   1
           1       1:  108    1:   54    1:   36
           2       1:  108    1:   54   37:   72
           3       1:  108    1:   54   73:  108
           4       1:  108   55:  108    1:   36
           5       1:  108   55:  108   37:   72
           6       1:  108   55:  108   73:  108

InitMesh: MESH =   216 x   216 x   216 =    10077696
InitMesh: (bp) =   108 x   108 x   108 =     1259712
InitMesh: Mesh cutoff (required, used) =   300.000   322.366 Ry
ExtMesh (bp) on 0 =   188 x   134 x   116 =     2922272
New grid distribution:   2
           1       1:   20   13:  108    1:   20
           2       1:  108    1:   10   21:  108
           3       1:  108    1:   12    1:   20
           4      21:  108   13:  108    1:   20
           5      20:  108   11:  108   21:  108
           6       1:   19   11:  108   21:  108
New grid distribution:   3
           1       1:   26   18:  108    1:   25
           2       1:  108    1:   15   26:  108
           3       1:  108    1:   17    1:   25
           4      27:  108   18:  108    1:   25
           5      24:  108   16:  108   26:  108
           6       1:   23   16:  108   26:  108
Setting up quadratic distribution...
ExtMesh (bp) on 0 =   100 x   176 x   100 =     1760000
PhiOnMesh: Number of (b)points on node 0 =                38400
PhiOnMesh: nlist on node 0 =               746727

        iscf     Eharris(eV)        E_KS(eV)     FreeEng(eV)     dDmax    Ef(eV) dHmax(eV)
   scf:    1    -2141.102514    -2141.082857    -2141.082857  0.002544 -4.602278  0.009811
   scf:    2    -2141.082615    -2141.082807    -2141.082807  0.000439 -4.597524  0.019989
   scf:    3    -2141.082925    -2141.082896    -2141.082896  0.000313 -4.600499  0.000740
   scf:    4    -2141.082896    -2141.082896    -2141.082896  0.000013 -4.600420  0.000355

SCF Convergence by DM+H criterion
max |DM_out - DM_in|         :     0.0000127249
max |H_out - H_in|      (eV) :     0.0003551365
SCF cycle converged after 4 iterations

Using DM_out to compute the final energy and forces
No. of atoms with KB's overlaping orbs in proc 0. Max # of overlaps:      24     183

siesta: E_KS(eV) =            -2141.0829

siesta: Atomic forces (eV/Ang):
----------------------------------------
   Tot   -0.004549   -0.000229   -0.001114
----------------------------------------
   Max    0.014045
   Res    0.006208    sqrt( Sum f_i^2 / 3N )
----------------------------------------
   Max    0.014045    constrained

Stress-tensor-Voigt (kbar):       -0.01       -0.07       -0.01       -0.02        0.02        0.00
(Free)E + p*V (eV/cell)    -2140.9343
Target enthalpy (eV/cell)    -2141.0829

                     ====================================
                        Begin Broyden opt. move =     18
                     ====================================

outcoor: Atomic coordinates (Ang):                          
    3.71650327    0.33865711    5.45907621   1       1  C.gga
    2.30133093    0.42307459    5.44894357   1       2  C.gga
    1.60551665    0.49524261    4.21584876   1       3  C.gga
    2.32519089    0.48711406    2.99447615   1       4  C.gga
    3.73996037    0.40559073    3.00421311   1       5  C.gga
    4.43497835    0.33098271    4.23688315   1       6  C.gga
    4.70008835    3.68149870    4.23499245   1       7  C.gga
    3.28528929    3.76322463    4.22583197   1       8  C.gga
    2.58947165    3.83790029    2.99362694   1       9  C.gga
    3.30743647    3.83046794    1.77116686   1      10  C.gga
    4.72270960    3.74617738    1.78056730   1      11  C.gga
    5.41913414    3.67374099    3.01325782   1      12  C.gga
    4.26124147    0.28663927    6.42265203   2      13  H.gga
    1.73970469    0.43511534    6.40416159   2      14  H.gga
    0.49964446    0.56457403    4.20754076   2      15  H.gga
    1.78189621    0.55790755    2.03117837   2      16  H.gga
    4.30305118    0.42247904    2.05020771   2      17  H.gga
    5.54194672    0.28093115    4.24545161   2      18  H.gga
    5.24375313    3.61073082    5.19806112   2      19  H.gga
    2.72302713    3.74625139    5.18032054   2      20  H.gga
    1.48246477    3.88819170    2.98575942   2      21  H.gga
    2.76253520    3.88289089    0.80779670   2      22  H.gga
    5.28403797    3.73444399    0.82511842   2      23  H.gga
    6.52503668    3.60449609    3.02104202   2      24  H.gga

outcell: Unit cell vectors (Ang):
       20.000000    0.000000    0.000000
        0.000000   20.000000    0.000000
        0.000000    0.000000   20.000000

outcell: Cell vector modules (Ang)   :   20.000000   20.000000   20.000000
outcell: Cell angles (23,13,12) (deg):     90.0000     90.0000     90.0000
outcell: Cell volume (Ang**3)        :   8000.0000
<dSpData1D:S at geom step 18
  <sparsity:sparsity for geom step 18
    nrows_g=216 nrows=48 sparsity=.2132 nnzs=9948, refcount: 7>
  <dData1D:(new from dSpData1D) n=9948, refcount: 1>
refcount: 1>
new_DM -- step:    19
Re-using DM from previous geometries...
Number of DMs in history: 1
 DM extrapolation coefficients: 
1   1.00000
New DM after history re-use:
<dSpData2D:SpM extrapolated using coords
  <sparsity:sparsity for geom step 18
    nrows_g=216 nrows=48 sparsity=.2132 nnzs=9948, refcount: 9>
  <dData2D:(temp array for extrapolation) n=9948 m=1, refcount: 1>
refcount: 1>
No. of atoms with KB's overlaping orbs in proc 0. Max # of overlaps:      24     183
New grid distribution:   1
           1       1:  108    1:   54    1:   36
           2       1:  108    1:   54   37:   72
           3       1:  108    1:   54   73:  108
           4       1:  108   55:  108    1:   36
           5       1:  108   55:  108   37:   72
           6       1:  108   55:  108   73:  108

InitMesh: MESH =   216 x   216 x   216 =    10077696
InitMesh: (bp) =   108 x   108 x   108 =     1259712
InitMesh: Mesh cutoff (required, used) =   300.000   322.366 Ry
ExtMesh (bp) on 0 =   188 x   134 x   116 =     2922272
New grid distribution:   2
           1       1:   20   13:  108    1:   20
           2       1:  108    1:   10   21:  108
           3       1:  108    1:   12    1:   20
           4      21:  108   13:  108    1:   20
           5      20:  108   11:  108   21:  108
           6       1:   19   11:  108   21:  108
New grid distribution:   3
           1       1:   26   18:  108    1:   25
           2       1:  108    1:   15   26:  108
           3       1:  108    1:   17    1:   25
           4      27:  108   18:  108    1:   25
           5      24:  108   16:  108   26:  108
           6       1:   23   16:  108   26:  108
Setting up quadratic distribution...
ExtMesh (bp) on 0 =   100 x   176 x   100 =     1760000
PhiOnMesh: Number of (b)points on node 0 =                38400
PhiOnMesh: nlist on node 0 =               748099

        iscf     Eharris(eV)        E_KS(eV)     FreeEng(eV)     dDmax    Ef(eV) dHmax(eV)
   scf:    1    -2141.110926    -2141.085537    -2141.085537  0.002895 -4.602015  0.015146
   scf:    2    -2141.085033    -2141.085432    -2141.085432  0.000617 -4.592873  0.031317
   scf:    3    -2141.085675    -2141.085614    -2141.085614  0.000442 -4.598589  0.000967
   scf:    4    -2141.085615    -2141.085615    -2141.085615  0.000016 -4.598460  0.000442

SCF Convergence by DM+H criterion
max |DM_out - DM_in|         :     0.0000163933
max |H_out - H_in|      (eV) :     0.0004416173
SCF cycle converged after 4 iterations

Using DM_out to compute the final energy and forces
No. of atoms with KB's overlaping orbs in proc 0. Max # of overlaps:      24     183

siesta: E_KS(eV) =            -2141.0856

siesta: Atomic forces (eV/Ang):
----------------------------------------
   Tot   -0.006385   -0.000900   -0.001703
----------------------------------------
   Max    0.011411
   Res    0.005008    sqrt( Sum f_i^2 / 3N )
----------------------------------------
   Max    0.011411    constrained

Stress-tensor-Voigt (kbar):       -0.01       -0.05       -0.01       -0.01        0.02        0.00
(Free)E + p*V (eV/cell)    -2140.9576
Target enthalpy (eV/cell)    -2141.0856

                     ====================================
                        Begin Broyden opt. move =     19
                     ====================================

outcoor: Atomic coordinates (Ang):                          
    3.71572546    0.33142249    5.46078033   1       1  C.gga
    2.30051285    0.41711428    5.45058841   1       2  C.gga
    1.60478441    0.48808275    4.21754413   1       3  C.gga
    2.32424971    0.47826088    2.99601575   1       4  C.gga
    3.73918537    0.39613977    3.00577785   1       5  C.gga
    4.43404548    0.32210581    4.23852035   1       6  C.gga
    4.70093314    3.69033240    4.23316416   1       7  C.gga
    3.28622569    3.77259709    4.22427782   1       8  C.gga
    2.59023299    3.84678312    2.99199388   1       9  C.gga
    3.30807017    3.83774031    1.76943475   1      10  C.gga
    4.72315453    3.75218425    1.77869687   1      11  C.gga
    5.41983075    3.68090252    3.01130319   1      12  C.gga
    4.26026563    0.27842176    6.42438426   2      13  H.gga
    1.73888176    0.42936873    6.40587255   2      14  H.gga
    0.49874304    0.55633543    4.20927467   2      15  H.gga
    1.78066206    0.54614817    2.03268907   2      16  H.gga
    4.30220173    0.41011445    2.05162894   2      17  H.gga
    5.54096420    0.26935467    4.24727058   2      18  H.gga
    5.24511003    3.62240478    5.19624681   2      19  H.gga
    2.72403766    3.75857900    5.17894729   2      20  H.gga
    1.48333078    3.89983304    2.98404704   2      21  H.gga
    2.76320520    3.89124945    0.80601088   2      22  H.gga
    5.28452307    3.74030268    0.82313518   2      23  H.gga
    6.52583292    3.61278297    3.01890595   2      24  H.gga

outcell: Unit cell vectors (Ang):
       20.000000    0.000000    0.000000
        0.000000   20.000000    0.000000
        0.000000    0.000000   20.000000

outcell: Cell vector modules (Ang)   :   20.000000   20.000000   20.000000
outcell: Cell angles (23,13,12) (deg):     90.0000     90.0000     90.0000
outcell: Cell volume (Ang**3)        :   8000.0000
<dSpData1D:S at geom step 19
  <sparsity:sparsity for geom step 19
    nrows_g=216 nrows=48 sparsity=.2131 nnzs=9944, refcount: 7>
  <dData1D:(new from dSpData1D) n=9944, refcount: 1>
refcount: 1>
new_DM -- step:    20
Re-using DM from previous geometries...
Number of DMs in history: 1
 DM extrapolation coefficients: 
1   1.00000
New DM after history re-use:
<dSpData2D:SpM extrapolated using coords
  <sparsity:sparsity for geom step 19
    nrows_g=216 nrows=48 sparsity=.2131 nnzs=9944, refcount: 9>
  <dData2D:(temp array for extrapolation) n=9944 m=1, refcount: 1>
refcount: 1>
No. of atoms with KB's overlaping orbs in proc 0. Max # of overlaps:      24     183
New grid distribution:   1
           1       1:  108    1:   54    1:   36
           2       1:  108    1:   54   37:   72
           3       1:  108    1:   54   73:  108
           4       1:  108   55:  108    1:   36
           5       1:  108   55:  108   37:   72
           6       1:  108   55:  108   73:  108

InitMesh: MESH =   216 x   216 x   216 =    10077696
InitMesh: (bp) =   108 x   108 x   108 =     1259712
InitMesh: Mesh cutoff (required, used) =   300.000   322.366 Ry
ExtMesh (bp) on 0 =   188 x   134 x   116 =     2922272
New grid distribution:   2
           1       1:   20   13:  108    1:   20
           2       1:  108    1:   10   21:  108
           3       1:  108    1:   12    1:   20
           4      21:  108   13:  108    1:   20
           5      20:  108   11:  108   21:  108
           6       1:   19   11:  108   21:  108
New grid distribution:   3
           1       1:   26   18:  108    1:   25
           2       1:  108    1:   15   26:  108
           3       1:  108    1:   17    1:   25
           4      27:  108   18:  108    1:   25
           5      24:  108   16:  108   26:  108
           6       1:   23   16:  108   26:  108
Setting up quadratic distribution...
ExtMesh (bp) on 0 =   100 x   176 x   100 =     1760000
PhiOnMesh: Number of (b)points on node 0 =                38400
PhiOnMesh: nlist on node 0 =               748782

        iscf     Eharris(eV)        E_KS(eV)     FreeEng(eV)     dDmax    Ef(eV) dHmax(eV)
   scf:    1    -2141.104970    -2141.086921    -2141.086921  0.001767 -4.599095  0.008518
   scf:    2    -2141.086744    -2141.086887    -2141.086887  0.000349 -4.594948  0.017151
   scf:    3    -2141.086976    -2141.086953    -2141.086953  0.000229 -4.597516  0.000552
   scf:    4    -2141.086954    -2141.086953    -2141.086953  0.000010 -4.597458  0.000274

SCF Convergence by DM+H criterion
max |DM_out - DM_in|         :     0.0000102832
max |H_out - H_in|      (eV) :     0.0002742438
SCF cycle converged after 4 iterations

Using DM_out to compute the final energy and forces
No. of atoms with KB's overlaping orbs in proc 0. Max # of overlaps:      24     183

siesta: E_KS(eV) =            -2141.0870

siesta: Atomic forces (eV/Ang):
----------------------------------------
   Tot   -0.005758   -0.001097   -0.001819
----------------------------------------
   Max    0.009062
   Res    0.004425    sqrt( Sum f_i^2 / 3N )
----------------------------------------
   Max    0.009062    constrained

Stress-tensor-Voigt (kbar):       -0.01       -0.04       -0.01       -0.01        0.02       -0.00
(Free)E + p*V (eV/cell)    -2140.9836
Target enthalpy (eV/cell)    -2141.0870

outcoor: Relaxed atomic coordinates (Ang):                  
    3.71572546    0.33142249    5.46078033   1       1  C.gga
    2.30051285    0.41711428    5.45058841   1       2  C.gga
    1.60478441    0.48808275    4.21754413   1       3  C.gga
    2.32424971    0.47826088    2.99601575   1       4  C.gga
    3.73918537    0.39613977    3.00577785   1       5  C.gga
    4.43404548    0.32210581    4.23852035   1       6  C.gga
    4.70093314    3.69033240    4.23316416   1       7  C.gga
    3.28622569    3.77259709    4.22427782   1       8  C.gga
    2.59023299    3.84678312    2.99199388   1       9  C.gga
    3.30807017    3.83774031    1.76943475   1      10  C.gga
    4.72315453    3.75218425    1.77869687   1      11  C.gga
    5.41983075    3.68090252    3.01130319   1      12  C.gga
    4.26026563    0.27842176    6.42438426   2      13  H.gga
    1.73888176    0.42936873    6.40587255   2      14  H.gga
    0.49874304    0.55633543    4.20927467   2      15  H.gga
    1.78066206    0.54614817    2.03268907   2      16  H.gga
    4.30220173    0.41011445    2.05162894   2      17  H.gga
    5.54096420    0.26935467    4.24727058   2      18  H.gga
    5.24511003    3.62240478    5.19624681   2      19  H.gga
    2.72403766    3.75857900    5.17894729   2      20  H.gga
    1.48333078    3.89983304    2.98404704   2      21  H.gga
    2.76320520    3.89124945    0.80601088   2      22  H.gga
    5.28452307    3.74030268    0.82313518   2      23  H.gga
    6.52583292    3.61278297    3.01890595   2      24  H.gga

coxmol: Writing XMOL coordinates into file BenzeneStacking.xyz                                                 

siesta: Program's energy decomposition (eV):
siesta: Ebs     =      -720.073845
siesta: Eions   =      3292.100692
siesta: Ena     =       751.021245
siesta: Ekin    =      1441.121653
siesta: Enl     =      -187.517404
siesta: Eso     =         0.000000
siesta: Eldau   =         0.000000
siesta: DEna    =       -84.029716
siesta: DUscf   =         9.897715
siesta: DUext   =         0.000000
siesta: Enegf   =         0.000000
siesta: Exc     =      -779.479754
siesta: eta*DQ  =         0.000000
siesta: Emadel  =         0.000000
siesta: Emeta   =         0.000000
siesta: Emolmec =         0.000000
siesta: Ekinion =         0.000000
siesta: Eharris =     -2141.086954
siesta: Etot    =     -2141.086953
siesta: FreeEng =     -2141.086953

siesta: Final energy (eV):
siesta:  Band Struct. =    -720.073845
siesta:       Kinetic =    1441.121653
siesta:       Hartree =    6526.315449
siesta:       Eldau   =       0.000000
siesta:       Eso     =       0.000000
siesta:    Ext. field =       0.000000
siesta:       Enegf   =       0.000000
siesta:   Exch.-corr. =    -779.479754
siesta:  Ion-electron =  -14328.184481
siesta:       Ion-ion =    4999.140181
siesta:       Ekinion =       0.000000
siesta:         Total =   -2141.086953
siesta:         Fermi =      -4.597458

siesta: Stress tensor (static) (eV/Ang**3):
siesta:    -0.000006   -0.000007   -0.000001
siesta:    -0.000007   -0.000026    0.000010
siesta:    -0.000001    0.000010   -0.000007

siesta: Cell volume =       8000.000000 Ang**3

siesta: Pressure (static):
siesta:                Solid            Molecule  Units
siesta:           0.00000014          0.00000000  Ry/Bohr**3
siesta:           0.00001292          0.00000040  eV/Ang**3
siesta:           0.02070173          0.00064679  kBar
(Free)E+ p_basis*V_orbitals  =       -2127.631881
(Free)Eharris+ p_basis*V_orbitals  =       -2127.631882

siesta: Electric dipole (a.u.)  =    0.000066    0.000233    0.000025
siesta: Electric dipole (Debye) =    0.000168    0.000592    0.000063
>> End of run:  27-AUG-2019  16:53:52
Job completed
