
                           ***********************       
                           *  WELCOME TO SIESTA  *       
                           ***********************       

reinit: Reading from input.fdf

reinit: -----------------------------------------------------------------------
reinit: System Name: 
reinit: -----------------------------------------------------------------------
reinit: System Label: Phenol
reinit: -----------------------------------------------------------------------
Siesta Version: siesta-4.1--736
Architecture  : unknown
Compiler flags: gfortran -O3 -fPIC -ftree-vectorize -fopenmp
PP flags      : -DFC_HAVE_ABORT
Libraries     : -L/usr/local/opt/openblas/lib -lopenblas -fopenmp
SERIAL version

* Running in serial mode
* Running 4 OpenMP threads.
* Running 4 processes.
* OpenMP version 201511
* OpenMP runtime schedule DYNAMIC, chunks 1
** OpenMP runtime schedule DYNAMIC, chunks 32
>> Start of run:  22-MAR-2019  13:25:52

initatom: Reading input for the pseudopotentials and atomic orbitals ----------
Species number:   1 Atomic number:    6 Label: C.gga
Species number:   2 Atomic number:    1 Label: H.gga
Species number:   3 Atomic number:    8 Label: O.gga

Ground state valence configuration:   2s02  2p02
Reading pseudopotential information in formatted form from C.gga.psf

Valence configuration for pseudopotential generation:
2s( 2.00) rc: 1.54
2p( 2.00) rc: 1.54
3d( 0.00) rc: 1.54
4f( 0.00) rc: 1.54
Ground state valence configuration:   1s01
Reading pseudopotential information in formatted form from H.gga.psf

Valence configuration for pseudopotential generation:
1s( 1.00) rc: 1.31
2p( 0.00) rc: 1.31
3d( 0.00) rc: 0.37
4f( 0.00) rc: 1.31
Ground state valence configuration:   2s02  2p04
Reading pseudopotential information in formatted form from O.gga.psf

Valence configuration for pseudopotential generation:
2s( 2.00) rc: 1.47
2p( 4.00) rc: 1.47
3d( 0.00) rc: 1.47
4f( 0.00) rc: 1.47
For C.gga, standard SIESTA heuristics set lmxkb to 3
 (one more than the basis l, including polarization orbitals).
Use PS.lmax or PS.KBprojectors blocks to override.
For H.gga, standard SIESTA heuristics set lmxkb to 2
 (one more than the basis l, including polarization orbitals).
Use PS.lmax or PS.KBprojectors blocks to override.
For O.gga, standard SIESTA heuristics set lmxkb to 3
 (one more than the basis l, including polarization orbitals).
Use PS.lmax or PS.KBprojectors blocks to override.

<basis_specs>
===============================================================================
C.gga                Z=   6    Mass=  12.010        Charge= 0.17977+309
Lmxo=1 Lmxkb= 3    BasisType=split      Semic=F
L=0  Nsemic=0  Cnfigmx=2
          n=1  nzeta=2  polorb=0
            splnorm:   0.15000    
               vcte:    0.0000    
               rinn:    0.0000    
               qcoe:    0.0000    
               qyuk:    0.0000    
               qwid:   0.10000E-01
                rcs:    0.0000      0.0000    
            lambdas:    1.0000      1.0000    
L=1  Nsemic=0  Cnfigmx=2
          n=1  nzeta=2  polorb=1
            splnorm:   0.15000    
               vcte:    0.0000    
               rinn:    0.0000    
               qcoe:    0.0000    
               qyuk:    0.0000    
               qwid:   0.10000E-01
                rcs:    0.0000      0.0000    
            lambdas:    1.0000      1.0000    
-------------------------------------------------------------------------------
L=0  Nkbl=1  erefs: 0.17977+309
L=1  Nkbl=1  erefs: 0.17977+309
L=2  Nkbl=1  erefs: 0.17977+309
L=3  Nkbl=1  erefs: 0.17977+309
===============================================================================
</basis_specs>

atom: Called for C.gga                 (Z =   6)

read_vps: Pseudopotential generation method:
read_vps: ATM3      Troullier-Martins                       
Total valence charge:    4.00000

read_vps: Pseudopotential includes a core correction:
read_vps: Pseudo-core for xc-correction

xc_check: Exchange-correlation functional:
xc_check: GGA Perdew, Burke & Ernzerhof 1996
V l=0 = -2*Zval/r beyond r=  1.5227
V l=1 = -2*Zval/r beyond r=  1.5227
V l=2 = -2*Zval/r beyond r=  1.5227
V l=3 = -2*Zval/r beyond r=  1.5038
All V_l potentials equal beyond r=  1.5227
This should be close to max(r_c) in ps generation
All pots = -2*Zval/r beyond r=  1.5227

VLOCAL1: 99.0% of the norm of Vloc inside     18.722 Ry
VLOCAL1: 99.9% of the norm of Vloc inside     42.668 Ry
atom: Maximum radius for 4*pi*r*r*local-pseudopot. charge    1.83678
atom: Maximum radius for r*vlocal+2*Zval:    1.58088
GHOST: No ghost state for L =  0
GHOST: No ghost state for L =  1
GHOST: No ghost state for L =  2
GHOST: No ghost state for L =  3

KBgen: Kleinman-Bylander projectors: 
   l= 0   rc=  1.704034   el= -1.009801   Ekb=  5.335044   kbcos=  0.316824
   l= 1   rc=  1.704034   el= -0.388707   Ekb= -3.785862   kbcos= -0.366464
   l= 2   rc=  1.791422   el=  0.001971   Ekb= -0.970471   kbcos= -0.009212
   l= 3   rc=  1.859892   el=  0.003065   Ekb= -0.399525   kbcos= -0.001223

KBgen: Total number of  Kleinman-Bylander projectors:   16
atom: -------------------------------------------------------------------------

atom: SANKEY-TYPE ORBITALS:
atom: Selected multiple-zeta basis: split     

SPLIT: Orbitals with angular momentum L= 0

SPLIT: Basis orbitals for state 2s

SPLIT: PAO cut-off radius determined from an
SPLIT: energy shift=  0.002205 Ry

   izeta = 1
                 lambda =    1.000000
                     rc =    5.382558
                 energy =   -1.007983
                kinetic =    0.829025
    potential(screened) =   -1.837009
       potential(ionic) =   -5.376592

   izeta = 2
                 rmatch =    3.475094
              splitnorm =    0.150000
                 energy =   -0.876935
                kinetic =    1.279964
    potential(screened) =   -2.156899
       potential(ionic) =   -5.943761

SPLIT: Orbitals with angular momentum L= 1

SPLIT: Basis orbitals for state 2p

SPLIT: PAO cut-off radius determined from an
SPLIT: energy shift=  0.002205 Ry

   izeta = 1
                 lambda =    1.000000
                     rc =    6.740804
                 energy =   -0.386704
                kinetic =    2.327316
    potential(screened) =   -2.714020
       potential(ionic) =   -6.100339

   izeta = 2
                 rmatch =    3.792903
              splitnorm =    0.150000
                 energy =   -0.270625
                kinetic =    3.420974
    potential(screened) =   -3.691599
       potential(ionic) =   -7.453004

POLgen: Perturbative polarization orbital with L=  2

POLgen: Polarization orbital for state 2p

   izeta = 1
                     rc =    6.740804
                 energy =    0.975645
                kinetic =    2.058046
    potential(screened) =   -1.082401
       potential(ionic) =   -3.782952
atom: Total number of Sankey-type orbitals: 13

atm_pop: Valence configuration (for local Pseudopot. screening):
 2s( 2.00)                                                            
 2p( 2.00)                                                            
Vna: chval, zval:    4.00000   4.00000

Vna:  Cut-off radius for the neutral-atom potential:   6.740804
comcore: Pseudo-core radius Rcore=  1.791422

atom: _________________________________________________________________________

<basis_specs>
===============================================================================
H.gga                Z=   1    Mass=  1.0100        Charge= 0.17977+309
Lmxo=0 Lmxkb= 2    BasisType=split      Semic=F
L=0  Nsemic=0  Cnfigmx=1
          n=1  nzeta=2  polorb=1
            splnorm:   0.15000    
               vcte:    0.0000    
               rinn:    0.0000    
               qcoe:    0.0000    
               qyuk:    0.0000    
               qwid:   0.10000E-01
                rcs:    0.0000      0.0000    
            lambdas:    1.0000      1.0000    
-------------------------------------------------------------------------------
L=0  Nkbl=1  erefs: 0.17977+309
L=1  Nkbl=1  erefs: 0.17977+309
L=2  Nkbl=1  erefs: 0.17977+309
===============================================================================
</basis_specs>

atom: Called for H.gga                 (Z =   1)

read_vps: Pseudopotential generation method:
read_vps: ATM3      Troullier-Martins                       
Total valence charge:    1.00000

xc_check: Exchange-correlation functional:
xc_check: GGA Perdew, Burke & Ernzerhof 1996
V l=0 = -2*Zval/r beyond r=  1.2977
V l=1 = -2*Zval/r beyond r=  1.2815
V l=2 = -2*Zval/r beyond r=  1.2656
All V_l potentials equal beyond r=  1.2977
This should be close to max(r_c) in ps generation
All pots = -2*Zval/r beyond r=  1.2977

VLOCAL1: 99.0% of the norm of Vloc inside     25.776 Ry
VLOCAL1: 99.9% of the norm of Vloc inside     58.745 Ry
atom: Maximum radius for 4*pi*r*r*local-pseudopot. charge    1.52711
atom: Maximum radius for r*vlocal+2*Zval:    1.28155
GHOST: No ghost state for L =  0
GHOST: No ghost state for L =  1
GHOST: No ghost state for L =  2

KBgen: Kleinman-Bylander projectors: 
   l= 0   rc=  1.434438   el= -0.477200   Ekb= -1.957043   kbcos= -0.361614
   l= 1   rc=  1.508111   el=  0.001076   Ekb= -0.424224   kbcos= -0.025441
   l= 2   rc=  1.527112   el=  0.002010   Ekb= -0.378578   kbcos= -0.002010

KBgen: Total number of  Kleinman-Bylander projectors:    9
atom: -------------------------------------------------------------------------

atom: SANKEY-TYPE ORBITALS:
atom: Selected multiple-zeta basis: split     

SPLIT: Orbitals with angular momentum L= 0

SPLIT: Basis orbitals for state 1s

SPLIT: PAO cut-off radius determined from an
SPLIT: energy shift=  0.002205 Ry

   izeta = 1
                 lambda =    1.000000
                     rc =    6.518340
                 energy =   -0.475328
                kinetic =    0.879188
    potential(screened) =   -1.354517
       potential(ionic) =   -1.873657

   izeta = 2
                 rmatch =    4.103729
              splitnorm =    0.150000
                 energy =   -0.382914
                kinetic =    1.427335
    potential(screened) =   -1.810249
       potential(ionic) =   -2.357086

POLgen: Perturbative polarization orbital with L=  1

POLgen: Polarization orbital for state 1s

   izeta = 1
                     rc =    6.518340
                 energy =    0.536347
                kinetic =    1.136516
    potential(screened) =   -0.600169
       potential(ionic) =   -1.065665
atom: Total number of Sankey-type orbitals:  5

atm_pop: Valence configuration (for local Pseudopot. screening):
 1s( 1.00)                                                            
Vna: chval, zval:    1.00000   1.00000

Vna:  Cut-off radius for the neutral-atom potential:   6.518340

atom: _________________________________________________________________________

<basis_specs>
===============================================================================
O.gga                Z=   8    Mass=  16.000        Charge= 0.17977+309
Lmxo=1 Lmxkb= 3    BasisType=split      Semic=F
L=0  Nsemic=0  Cnfigmx=2
          n=1  nzeta=2  polorb=0
            splnorm:   0.15000    
               vcte:    0.0000    
               rinn:    0.0000    
               qcoe:    0.0000    
               qyuk:    0.0000    
               qwid:   0.10000E-01
                rcs:    0.0000      0.0000    
            lambdas:    1.0000      1.0000    
L=1  Nsemic=0  Cnfigmx=2
          n=1  nzeta=2  polorb=1
            splnorm:   0.15000    
               vcte:    0.0000    
               rinn:    0.0000    
               qcoe:    0.0000    
               qyuk:    0.0000    
               qwid:   0.10000E-01
                rcs:    0.0000      0.0000    
            lambdas:    1.0000      1.0000    
-------------------------------------------------------------------------------
L=0  Nkbl=1  erefs: 0.17977+309
L=1  Nkbl=1  erefs: 0.17977+309
L=2  Nkbl=1  erefs: 0.17977+309
L=3  Nkbl=1  erefs: 0.17977+309
===============================================================================
</basis_specs>

atom: Called for O.gga                 (Z =   8)

read_vps: Pseudopotential generation method:
read_vps: ATM3      Troullier-Martins                       
Total valence charge:    6.00000

read_vps: Pseudopotential includes a core correction:
read_vps: Pseudo-core for xc-correction

xc_check: Exchange-correlation functional:
xc_check: GGA Perdew, Burke & Ernzerhof 1996
V l=0 = -2*Zval/r beyond r=  1.4482
V l=1 = -2*Zval/r beyond r=  1.4482
V l=2 = -2*Zval/r beyond r=  1.4482
V l=3 = -2*Zval/r beyond r=  1.4482
All V_l potentials equal beyond r=  1.4482
This should be close to max(r_c) in ps generation
All pots = -2*Zval/r beyond r=  1.4482

VLOCAL1: 99.0% of the norm of Vloc inside     20.696 Ry
VLOCAL1: 99.9% of the norm of Vloc inside     47.167 Ry
atom: Maximum radius for 4*pi*r*r*local-pseudopot. charge    1.74697
atom: Maximum radius for r*vlocal+2*Zval:    1.52250
GHOST: No ghost state for L =  0
GHOST: No ghost state for L =  1
GHOST: No ghost state for L =  2
GHOST: No ghost state for L =  3

KBgen: Kleinman-Bylander projectors: 
   l= 0   rc=  1.620715   el= -1.757696   Ekb=  4.880948   kbcos=  0.293490
   l= 1   rc=  1.600578   el= -0.664256   Ekb= -6.909822   kbcos= -0.499892
   l= 2   rc=  1.703827   el=  0.002031   Ekb= -1.539219   kbcos= -0.006778
   l= 3   rc=  1.746967   el=  0.003153   Ekb= -0.568983   kbcos= -0.000967

KBgen: Total number of  Kleinman-Bylander projectors:   16
atom: -------------------------------------------------------------------------

atom: SANKEY-TYPE ORBITALS:
atom: Selected multiple-zeta basis: split     

SPLIT: Orbitals with angular momentum L= 0

SPLIT: Basis orbitals for state 2s

SPLIT: PAO cut-off radius determined from an
SPLIT: energy shift=  0.002205 Ry

   izeta = 1
                 lambda =    1.000000
                     rc =    4.139122
                 energy =   -1.755549
                kinetic =    1.529685
    potential(screened) =   -3.285233
       potential(ionic) =  -11.160563

   izeta = 2
                 rmatch =    2.541963
              splitnorm =    0.150000
                 energy =   -1.517776
                kinetic =    2.348222
    potential(screened) =   -3.865999
       potential(ionic) =  -12.356890

SPLIT: Orbitals with angular momentum L= 1

SPLIT: Basis orbitals for state 2p

SPLIT: PAO cut-off radius determined from an
SPLIT: energy shift=  0.002205 Ry

   izeta = 1
                 lambda =    1.000000
                     rc =    5.314825
                 energy =   -0.662390
                kinetic =    4.472446
    potential(screened) =   -5.134836
       potential(ionic) =  -12.694617

   izeta = 2
                 rmatch =    2.705925
              splitnorm =    0.150000
                 energy =   -0.427537
                kinetic =    6.597007
    potential(screened) =   -7.024544
       potential(ionic) =  -15.479186

POLgen: Perturbative polarization orbital with L=  2

POLgen: Polarization orbital for state 2p

   izeta = 1
                     rc =    5.314825
                 energy =    1.979175
                kinetic =    4.015874
    potential(screened) =   -2.036699
       potential(ionic) =   -7.919671
atom: Total number of Sankey-type orbitals: 13

atm_pop: Valence configuration (for local Pseudopot. screening):
 2s( 2.00)                                                            
 2p( 4.00)                                                            
Vna: chval, zval:    6.00000   6.00000

Vna:  Cut-off radius for the neutral-atom potential:   5.314825
comcore: Pseudo-core radius Rcore=  1.377587

atom: _________________________________________________________________________

prinput: Basis input ----------------------------------------------------------

PAO.BasisType split     

%block ChemicalSpeciesLabel
    1    6 C.gga                   # Species index, atomic number, species label
    2    1 H.gga                   # Species index, atomic number, species label
    3    8 O.gga                   # Species index, atomic number, species label
%endblock ChemicalSpeciesLabel

%block PAO.Basis                 # Define Basis set
C.gga                 2                    # Species label, number of l-shells
 n=2   0   2                         # n, l, Nzeta 
   5.383      3.475   
   1.000      1.000   
 n=2   1   2 P   1                   # n, l, Nzeta, Polarization, NzetaPol
   6.741      3.793   
   1.000      1.000   
H.gga                 1                    # Species label, number of l-shells
 n=1   0   2 P   1                   # n, l, Nzeta, Polarization, NzetaPol
   6.518      4.104   
   1.000      1.000   
O.gga                 2                    # Species label, number of l-shells
 n=2   0   2                         # n, l, Nzeta 
   4.139      2.542   
   1.000      1.000   
 n=2   1   2 P   1                   # n, l, Nzeta, Polarization, NzetaPol
   5.315      2.706   
   1.000      1.000   
%endblock PAO.Basis

prinput: ----------------------------------------------------------------------

coor:   Atomic-coordinates input format  =     Cartesian coordinates
coor:                                          (in Angstroms)

siesta: Atomic coordinates (Bohr) and species
siesta:      4.13884   2.11496   0.00000  1        1
siesta:      6.44149   3.41145   0.00000  1        2
siesta:      6.47265   6.05474   0.00000  1        3
siesta:      4.19960   7.40994   0.00000  1        4
siesta:      1.88980   6.10327   0.00000  1        5
siesta:      1.86435   3.46007   0.00000  1        6
siesta:      2.71593  10.95093   0.00000  2        7
siesta:      4.11709   0.06975   0.00000  2        8
siesta:      8.20111   2.36877   0.00000  2        9
siesta:      8.26045   7.04989   0.00000  2       10
siesta:      0.12145   7.13257   0.00000  2       11
siesta:      0.08288   2.45511   0.00000  2       12
siesta:      4.25190   9.95775   0.00000  3       13

siesta: System type = molecule  

initatomlists: Number of atoms, orbitals, and projectors:     13   121   166

coxmol: Writing XMOL coordinates into file Phenol.xyz                                                          

siesta: ******************** Simulation parameters ****************************
siesta:
siesta: The following are some of the parameters of the simulation.
siesta: A complete list of the parameters used, including default values,
siesta: can be found in file out.fdf
siesta:
redata: Spin configuration                          = none
redata: Number of spin components                   = 1
redata: Time-Reversal Symmetry                      = T
redata: Spin-spiral                                 = F
redata: Long output                                 =   F
redata: Number of Atomic Species                    =        3
redata: Charge density info will appear in .RHO file
redata: Write Mulliken Pop.                         = NO
redata: Mesh Cutoff                                 =   300.0000 Ry
redata: Net charge of the system                    =     0.0000 |e|
redata: Min. number of SCF Iter                     =        0
redata: Max. number of SCF Iter                     =     1000
redata: SCF mix quantity                            = Hamiltonian
redata: Mix DM or H after convergence               =   F
redata: Recompute H after scf cycle                 =   F
redata: Mix DM in first SCF step                    =   T
redata: Write Pulay info on disk                    =   F
redata: New DM Mixing Weight                        =     0.2500
redata: New DM Occupancy tolerance                  = 0.000000000001
redata: No kicks to SCF
redata: DM Mixing Weight for Kicks                  =     0.5000
redata: Require Harris convergence for SCF          =   F
redata: Harris energy tolerance for SCF             =     0.000100 eV
redata: Require DM convergence for SCF              =   T
redata: DM tolerance for SCF                        =     0.0001
redata: Require EDM convergence for SCF             =   F
redata: EDM tolerance for SCF                       =     0.001000 eV
redata: Require H convergence for SCF               =   T
redata: Hamiltonian tolerance for SCF               =     0.001000 eV
redata: Require (free) Energy convergence for SCF   =   F
redata: (free) Energy tolerance for SCF             =     0.000100 eV
redata: Using Saved Data (generic)                  =   F
redata: Use continuation files for DM               =   F
redata: Neglect nonoverlap interactions             =   F
redata: Method of Calculation                       = Diagonalization
redata: Divide and Conquer                          =   T
redata: Electronic Temperature                      =   299.9869 K
redata: Fix the spin of the system                  =   F
redata: Dynamics option                             = FIRE coord. optimization
redata: Variable cell                               =   F
redata: Use continuation files for CG               =   F
redata: Max atomic displ per move                   =     0.1058 Ang
redata: Maximum number of CG moves                  =     1000
redata: Force tolerance                             =     0.0100 eV/Ang
mix.SCF: Pulay mixing                            = Pulay
mix.SCF:    Variant                              = stable
mix.SCF:    History steps                        = 2
mix.SCF:    Linear mixing weight                 =     0.250000
mix.SCF:    Mixing weight                        =     0.250000
mix.SCF:    SVD condition                        = 0.1000E-07
redata: ***********************************************************************

%block SCF.Mixers
  Pulay
%endblock SCF.Mixers

%block SCF.Mixer.Pulay
  # Mixing method
  method pulay
  variant stable

  # Mixing options
  weight 0.2500
  weight.linear 0.2500
  history 2
%endblock SCF.Mixer.Pulay

DM_history_depth set to one: no extrapolation allowed by default for geometry relaxation
Size of DM history Fstack: 1
Total number of electrons:    36.000000
Total ionic charge:    36.000000
 Kpoints in:            1 . Kpoints trimmed:            1

siesta: k-grid: Number of k-points =     1
siesta: k-grid: Cutoff (effective) =    10.000 Ang
siesta: k-grid: Supercell and displacements
siesta: k-grid:    1   0   0      0.000
siesta: k-grid:    0   1   0      0.000
siesta: k-grid:    0   0   1      0.000


                     ====================================
                        Begin FIRE opt. move =      0
                     ====================================

outcoor: Atomic coordinates (Ang):                          
    2.19018000    1.11919000    0.00000000   1       1  C.gga
    3.40869000    1.80526000    0.00000000   1       2  C.gga
    3.42518000    3.20403000    0.00000000   1       3  C.gga
    2.22233000    3.92117000    0.00000000   1       4  C.gga
    1.00004000    3.22971000    0.00000000   1       5  C.gga
    0.98657000    1.83099000    0.00000000   1       6  C.gga
    1.43721000    5.79498000    0.00000000   2       7  H.gga
    2.17867000    0.03691000    0.00000000   2       8  H.gga
    4.33984000    1.25350000    0.00000000   2       9  H.gga
    4.37124000    3.73064000    0.00000000   2      10  H.gga
    0.06427000    3.77439000    0.00000000   2      11  H.gga
    0.04386000    1.29919000    0.00000000   2      12  H.gga
    2.25001000    5.26941000    0.00000000   3      13  O.gga

outcell: Unit cell vectors (Ang):
       20.000000    0.000000    0.000000
        0.000000   20.000000    0.000000
        0.000000    0.000000   20.000000

outcell: Cell vector modules (Ang)   :   20.000000   20.000000   20.000000
outcell: Cell angles (23,13,12) (deg):     90.0000     90.0000     90.0000
outcell: Cell volume (Ang**3)        :   8000.0000
<dSpData1D:S at geom step 0
  <sparsity:sparsity for geom step 0
    nrows_g=121 nrows=121 sparsity=.9985 nnzs=14619, refcount: 7>
  <dData1D:(new from dSpData1D) n=14619, refcount: 1>
refcount: 1>
new_DM -- step:     1
Initializing Density Matrix...
DM filled with atomic data:
<dSpData2D:DM initialized from atoms
  <sparsity:sparsity for geom step 0
    nrows_g=121 nrows=121 sparsity=.9985 nnzs=14619, refcount: 8>
  <dData2D:DM n=14619 m=1, refcount: 1>
refcount: 1>

No. of atoms with KB's overlaping orbs in proc 0. Max # of overlaps:      13     118
New grid distribution:   1
           1       1:  108    1:  108    1:  108

InitMesh: MESH =   216 x   216 x   216 =    10077696
InitMesh: (bp) =   108 x   108 x   108 =     1259712
InitMesh: Mesh cutoff (required, used) =   300.000   322.366 Ry
ExtMesh (bp) on 0 =   188 x   188 x   188 =     6644672
PhiOnMesh: Number of (b)points on node 0 =              1259712
PhiOnMesh: nlist on node 0 =              2631478

stepf: Fermi-Dirac step function

siesta: Program's energy decomposition (eV):
siesta: Ebs     =      -344.576689
siesta: Eions   =      2250.705553
siesta: Ena     =       437.721806
siesta: Ekin    =      1102.942223
siesta: Enl     =      -208.796467
siesta: Eso     =         0.000000
siesta: Eldau   =         0.000000
siesta: DEna    =       -89.938200
siesta: DUscf   =        14.261340
siesta: DUext   =         0.000000
siesta: Exc     =      -516.434064
siesta: eta*DQ  =         0.000000
siesta: Emadel  =         0.000000
siesta: Emeta   =         0.000000
siesta: Emolmec =         0.000000
siesta: Ekinion =         0.000000
siesta: Eharris =     -1501.243932
siesta: Etot    =     -1510.948914
siesta: FreeEng =     -1510.948914

        iscf     Eharris(eV)        E_KS(eV)     FreeEng(eV)     dDmax    Ef(eV) dHmax(eV)
   scf:    1    -1501.243932    -1510.948914    -1510.948914  1.981527 -8.456082 10.306345
timer: Routine,Calls,Time,% = IterSCF        1       5.124  43.18
   scf:    2    -1517.139230    -1514.422590    -1514.422590  0.135728 -4.893288  4.863545
   scf:    3    -1515.802749    -1515.449627    -1515.449627  0.127516 -3.238067  0.762522
   scf:    4    -1515.528109    -1515.492389    -1515.492389  0.009057 -3.220560  0.522410
   scf:    5    -1515.520476    -1515.508503    -1515.508503  0.009633 -3.175778  0.235011
   scf:    6    -1515.512135    -1515.510513    -1515.510513  0.005920 -3.123677  0.093759
   scf:    7    -1515.510864    -1515.510737    -1515.510737  0.004034 -3.074399  0.030214
   scf:    8    -1515.510961    -1515.510860    -1515.510860  0.000374 -3.071118  0.019974
   scf:    9    -1515.510937    -1515.510904    -1515.510904  0.000450 -3.070035  0.010220
   scf:   10    -1515.510914    -1515.510909    -1515.510909  0.000249 -3.070620  0.005267
   scf:   11    -1515.510912    -1515.510911    -1515.510911  0.000269 -3.071562  0.000877
   scf:   12    -1515.510911    -1515.510911    -1515.510911  0.000019 -3.071732  0.000515

SCF Convergence by DM+H criterion
max |DM_out - DM_in|         :     0.0000185880
max |H_out - H_in|      (eV) :     0.0005148364
SCF cycle converged after 12 iterations

Using DM_out to compute the final energy and forces
No. of atoms with KB's overlaping orbs in proc 0. Max # of overlaps:      13     118

siesta: E_KS(eV) =            -1515.5109

siesta: E_KS - E_eggbox =     -1515.5109

siesta: Atomic forces (eV/Ang):
----------------------------------------
   Tot    0.047125   -0.026207    0.000000
----------------------------------------
   Max    1.738037
   Res    0.565159    sqrt( Sum f_i^2 / 3N )
----------------------------------------
   Max    1.738037    constrained

Stress-tensor-Voigt (kbar):       -1.20       -1.05        0.00       -0.25       -0.00       -0.00
(Free)E + p*V (eV/cell)    -1511.7825
Target enthalpy (eV/cell)    -1515.5109
FIRE: No of elements:     39

                     ====================================
                        Begin FIRE opt. move =      1
                     ====================================

outcoor: Atomic coordinates (Ang):                          
    2.19066769    1.12045011    0.00000000   1       1  C.gga
    3.38703300    1.81821647    0.00000000   1       2  C.gga
    3.43207141    3.19999496    0.00000000   1       3  C.gga
    2.17193830    3.91639637   -0.00000000   1       4  C.gga
    1.00730682    3.20764088    0.00000000   1       5  C.gga
    1.00173071    1.84209813   -0.00000000   1       6  C.gga
    1.41268995    5.76614509   -0.00000000   2       7  H.gga
    2.17809714    0.00022657    0.00000000   2       8  H.gga
    4.37250057    1.23685590    0.00000000   2       9  H.gga
    4.40028061    3.75281108   -0.00000000   2      10  H.gga
    0.03322590    3.79661745   -0.00000000   2      11  H.gga
    0.01093476    1.28197243    0.00000000   2      12  H.gga
    2.32155295    5.32886578    0.00000000   3      13  O.gga

outcell: Unit cell vectors (Ang):
       20.000000    0.000000    0.000000
        0.000000   20.000000    0.000000
        0.000000    0.000000   20.000000

outcell: Cell vector modules (Ang)   :   20.000000   20.000000   20.000000
outcell: Cell angles (23,13,12) (deg):     90.0000     90.0000     90.0000
outcell: Cell volume (Ang**3)        :   8000.0000
<dSpData1D:S at geom step 1
  <sparsity:sparsity for geom step 1
    nrows_g=121 nrows=121 sparsity=.9981 nnzs=14613, refcount: 7>
  <dData1D:(new from dSpData1D) n=14613, refcount: 1>
refcount: 1>
new_DM -- step:     2
Re-using DM from previous geometries...
Number of DMs in history: 1
 DM extrapolation coefficients: 
1   1.00000
New DM after history re-use:
<dSpData2D:SpM extrapolated using coords
  <sparsity:sparsity for geom step 1
    nrows_g=121 nrows=121 sparsity=.9981 nnzs=14613, refcount: 8>
  <dData2D:(temp array for extrapolation) n=14613 m=1, refcount: 1>
refcount: 1>
Note: For starting DM, Qtot, Tr[D*S] =         36.00000000         35.83214657
No. of atoms with KB's overlaping orbs in proc 0. Max # of overlaps:      13     118
New grid distribution:   1
           1       1:  108    1:  108    1:  108

InitMesh: MESH =   216 x   216 x   216 =    10077696
InitMesh: (bp) =   108 x   108 x   108 =     1259712
InitMesh: Mesh cutoff (required, used) =   300.000   322.366 Ry
ExtMesh (bp) on 0 =   188 x   188 x   188 =     6644672
PhiOnMesh: Number of (b)points on node 0 =              1259712
PhiOnMesh: nlist on node 0 =              2631394

        iscf     Eharris(eV)        E_KS(eV)     FreeEng(eV)     dDmax    Ef(eV) dHmax(eV)
   scf:    1    -1516.456633    -1515.288513    -1515.288513  0.226672 -4.762030  1.508748
   scf:    2    -1513.460240    -1514.813758    -1514.813758  0.124522 -4.271251  3.264026
   scf:    3    -1515.599086    -1515.421158    -1515.421158  0.086393 -4.645948  0.073674
   scf:    4    -1515.422436    -1515.421858    -1515.421858  0.002464 -4.645422  0.045391
   scf:    5    -1515.422335    -1515.422114    -1515.422114  0.002037 -4.640473  0.022527
   scf:    6    -1515.422229    -1515.422174    -1515.422174  0.001063 -4.636148  0.011960
   scf:    7    -1515.422207    -1515.422192    -1515.422192  0.000852 -4.632802  0.002662
   scf:    8    -1515.422194    -1515.422193    -1515.422193  0.000123 -4.632652  0.001893
   scf:    9    -1515.422194    -1515.422193    -1515.422193  0.000120 -4.632749  0.000878
   scf:   10    -1515.422193    -1515.422193    -1515.422193  0.000040 -4.632895  0.000503

SCF Convergence by DM+H criterion
max |DM_out - DM_in|         :     0.0000396009
max |H_out - H_in|      (eV) :     0.0005033073
SCF cycle converged after 10 iterations

Using DM_out to compute the final energy and forces
No. of atoms with KB's overlaping orbs in proc 0. Max # of overlaps:      13     118

siesta: E_KS(eV) =            -1515.4222

siesta: Atomic forces (eV/Ang):
----------------------------------------
   Tot    0.006643   -0.005382   -0.000000
----------------------------------------
   Max    3.620830
   Res    1.202984    sqrt( Sum f_i^2 / 3N )
----------------------------------------
   Max    3.620830    constrained

Stress-tensor-Voigt (kbar):       -0.08       -0.40        0.00       -0.49        0.00       -0.00
(Free)E + p*V (eV/cell)    -1514.6228
Target enthalpy (eV/cell)    -1515.4222

                     ====================================
                        Begin FIRE opt. move =      2
                     ====================================

outcoor: Atomic coordinates (Ang):                          
    2.16953407    1.06129991   -0.00000000   1       1  C.gga
    3.48397901    1.77630455   -0.00000000   1       2  C.gga
    3.40006334    3.26017479    0.00000000   1       3  C.gga
    2.27777370    3.98750228   -0.00000000   1       4  C.gga
    0.90147142    3.29953442   -0.00000000   1       5  C.gga
    0.93644125    1.73984324    0.00000000   1       6  C.gga
    1.45482264    5.73730785   -0.00000000   2       7  H.gga
    2.17838524    0.01842038   -0.00000000   2       8  H.gga
    4.33632293    1.25897526   -0.00000000   2       9  H.gga
    4.38713905    3.75106011   -0.00000000   2      10  H.gga
    0.05833650    3.77507918   -0.00000000   2      11  H.gga
    0.04234362    1.30208768    0.00000000   2      12  H.gga
    2.26138486    5.30048002    0.00000000   3      13  O.gga

outcell: Unit cell vectors (Ang):
       20.000000    0.000000    0.000000
        0.000000   20.000000    0.000000
        0.000000    0.000000   20.000000

outcell: Cell vector modules (Ang)   :   20.000000   20.000000   20.000000
outcell: Cell angles (23,13,12) (deg):     90.0000     90.0000     90.0000
outcell: Cell volume (Ang**3)        :   8000.0000
<dSpData1D:S at geom step 2
  <sparsity:sparsity for geom step 2
    nrows_g=121 nrows=121 sparsity=.9981 nnzs=14613, refcount: 7>
  <dData1D:(new from dSpData1D) n=14613, refcount: 1>
refcount: 1>
new_DM -- step:     3
Re-using DM from previous geometries...
Number of DMs in history: 1
 DM extrapolation coefficients: 
1   1.00000
New DM after history re-use:
<dSpData2D:SpM extrapolated using coords
  <sparsity:sparsity for geom step 2
    nrows_g=121 nrows=121 sparsity=.9981 nnzs=14613, refcount: 8>
  <dData2D:(temp array for extrapolation) n=14613 m=1, refcount: 1>
refcount: 1>
No. of atoms with KB's overlaping orbs in proc 0. Max # of overlaps:      13     117
New grid distribution:   1
           1       1:  108    1:  108    1:  108

InitMesh: MESH =   216 x   216 x   216 =    10077696
InitMesh: (bp) =   108 x   108 x   108 =     1259712
InitMesh: Mesh cutoff (required, used) =   300.000   322.366 Ry
ExtMesh (bp) on 0 =   188 x   188 x   188 =     6644672
PhiOnMesh: Number of (b)points on node 0 =              1259712
PhiOnMesh: nlist on node 0 =              2630533

        iscf     Eharris(eV)        E_KS(eV)     FreeEng(eV)     dDmax    Ef(eV) dHmax(eV)
   scf:    1    -1508.844890    -1512.497627    -1512.497627  0.272781 -3.830277  4.139264
   scf:    2    -1501.811736    -1509.754883    -1509.754883  0.267001 -2.822512  9.445936
   scf:    3    -1514.389691    -1513.337382    -1513.337382  0.167925 -4.158098  0.363053
   scf:    4    -1513.350445    -1513.344756    -1513.344756  0.004076 -4.114351  0.101614
   scf:    5    -1513.347995    -1513.346606    -1513.346606  0.002756 -4.107276  0.040066
   scf:    6    -1513.347072    -1513.346855    -1513.346855  0.000971 -4.114225  0.023049
   scf:    7    -1513.346988    -1513.346930    -1513.346930  0.000942 -4.121900  0.009312
   scf:    8    -1513.346939    -1513.346935    -1513.346935  0.000226 -4.123548  0.003714
   scf:    9    -1513.346938    -1513.346936    -1513.346936  0.000132 -4.124041  0.001750
   scf:   10    -1513.346937    -1513.346937    -1513.346937  0.000065 -4.123959  0.000935

SCF Convergence by DM+H criterion
max |DM_out - DM_in|         :     0.0000649301
max |H_out - H_in|      (eV) :     0.0009354934
SCF cycle converged after 10 iterations

Using DM_out to compute the final energy and forces
No. of atoms with KB's overlaping orbs in proc 0. Max # of overlaps:      13     117

siesta: E_KS(eV) =            -1513.3469

siesta: Atomic forces (eV/Ang):
----------------------------------------
   Tot    0.028498    0.038818    0.000000
----------------------------------------
   Max    9.576710
   Res    3.740805    sqrt( Sum f_i^2 / 3N )
----------------------------------------
   Max    9.576710    constrained

Stress-tensor-Voigt (kbar):       -1.93        0.05        0.00        1.29       -0.00        0.00
(Free)E + p*V (eV/cell)    -1510.2385
Target enthalpy (eV/cell)    -1513.3469

                     ====================================
                        Begin FIRE opt. move =      3
                     ====================================

outcoor: Atomic coordinates (Ang):                          
    2.19299158    1.09627148   -0.00000000   1       1  C.gga
    3.39856716    1.81675356    0.00000000   1       2  C.gga
    3.44269520    3.21666063    0.00000000   1       3  C.gga
    2.19916992    3.96747204   -0.00000000   1       4  C.gga
    1.00002313    3.22639888   -0.00000000   1       5  C.gga
    0.98288155    1.81227107   -0.00000000   1       6  C.gga
    1.42411340    5.74614933    0.00000000   2       7  H.gga
    2.17852450   -0.00836633    0.00000000   2       8  H.gga
    4.38092281    1.23512836   -0.00000000   2       9  H.gga
    4.38802454    3.75555458    0.00000000   2      10  H.gga
   -0.00251398    3.81125535    0.00000000   2      11  H.gga
   -0.00301652    1.27580974    0.00000000   2      12  H.gga
    2.30590762    5.31711046    0.00000000   3      13  O.gga

outcell: Unit cell vectors (Ang):
       20.000000    0.000000    0.000000
        0.000000   20.000000    0.000000
        0.000000    0.000000   20.000000

outcell: Cell vector modules (Ang)   :   20.000000   20.000000   20.000000
outcell: Cell angles (23,13,12) (deg):     90.0000     90.0000     90.0000
outcell: Cell volume (Ang**3)        :   8000.0000
<dSpData1D:S at geom step 3
  <sparsity:sparsity for geom step 3
    nrows_g=121 nrows=121 sparsity=.9980 nnzs=14611, refcount: 7>
  <dData1D:(new from dSpData1D) n=14611, refcount: 1>
refcount: 1>
new_DM -- step:     4
Re-using DM from previous geometries...
Number of DMs in history: 1
 DM extrapolation coefficients: 
1   1.00000
New DM after history re-use:
<dSpData2D:SpM extrapolated using coords
  <sparsity:sparsity for geom step 3
    nrows_g=121 nrows=121 sparsity=.9980 nnzs=14611, refcount: 8>
  <dData2D:(temp array for extrapolation) n=14611 m=1, refcount: 1>
refcount: 1>
Note: For starting DM, Qtot, Tr[D*S] =         36.00000000         35.91338053
No. of atoms with KB's overlaping orbs in proc 0. Max # of overlaps:      13     117
New grid distribution:   1
           1       1:  108    1:  108    1:  108

InitMesh: MESH =   216 x   216 x   216 =    10077696
InitMesh: (bp) =   108 x   108 x   108 =     1259712
InitMesh: Mesh cutoff (required, used) =   300.000   322.366 Ry
ExtMesh (bp) on 0 =   188 x   188 x   188 =     6644672
PhiOnMesh: Number of (b)points on node 0 =              1259712
PhiOnMesh: nlist on node 0 =              2631393

        iscf     Eharris(eV)        E_KS(eV)     FreeEng(eV)     dDmax    Ef(eV) dHmax(eV)
   scf:    1    -1515.507378    -1515.132025    -1515.132025  0.181261 -3.365286  2.602875
   scf:    2    -1510.874462    -1514.128853    -1514.128853  0.183659 -5.191447  4.946854
   scf:    3    -1516.074739    -1515.595056    -1515.595056  0.129905 -3.342091  0.141351
   scf:    4    -1515.598507    -1515.596904    -1515.596904  0.001633 -3.336538  0.076705
   scf:    5    -1515.598360    -1515.597705    -1515.597705  0.001778 -3.326515  0.025875
   scf:    6    -1515.597916    -1515.597823    -1515.597823  0.000949 -3.319902  0.008636
   scf:    7    -1515.597841    -1515.597833    -1515.597833  0.000344 -3.317972  0.004020
   scf:    8    -1515.597836    -1515.597835    -1515.597835  0.000124 -3.317861  0.002644
   scf:    9    -1515.597836    -1515.597835    -1515.597835  0.000118 -3.318033  0.001089
   scf:   10    -1515.597836    -1515.597836    -1515.597836  0.000077 -3.318257  0.000456

SCF Convergence by DM+H criterion
max |DM_out - DM_in|         :     0.0000767880
max |H_out - H_in|      (eV) :     0.0004561209
SCF cycle converged after 10 iterations

Using DM_out to compute the final energy and forces
No. of atoms with KB's overlaping orbs in proc 0. Max # of overlaps:      13     117

siesta: E_KS(eV) =            -1515.5978

siesta: Atomic forces (eV/Ang):
----------------------------------------
   Tot   -0.030686    0.016637   -0.000000
----------------------------------------
   Max    1.786274
   Res    0.689971    sqrt( Sum f_i^2 / 3N )
----------------------------------------
   Max    1.786274    constrained

Stress-tensor-Voigt (kbar):        0.38        0.13        0.00       -0.37       -0.00        0.00
(Free)E + p*V (eV/cell)    -1516.4566
Target enthalpy (eV/cell)    -1515.5978

                     ====================================
                        Begin FIRE opt. move =      4
                     ====================================

outcoor: Atomic coordinates (Ang):                          
    2.19184354    1.09611132   -0.00000000   1       1  C.gga
    3.40215587    1.81506525    0.00000000   1       2  C.gga
    3.43874743    3.21780316    0.00000000   1       3  C.gga
    2.20247820    3.96287651   -0.00000000   1       4  C.gga
    0.99560298    3.22908009   -0.00000000   1       5  C.gga
    0.98199810    1.81232688   -0.00000000   1       6  C.gga
    1.42426776    5.74552911    0.00000000   2       7  H.gga
    2.17874904   -0.00852111    0.00000000   2       8  H.gga
    4.37884562    1.23655808    0.00000000   2       9  H.gga
    4.38945299    3.75643517   -0.00000000   2      10  H.gga
    0.00048827    3.80937968    0.00000000   2      11  H.gga
   -0.00194345    1.27641225    0.00000000   2      12  H.gga
    2.30552562    5.31945556    0.00000000   3      13  O.gga

outcell: Unit cell vectors (Ang):
       20.000000    0.000000    0.000000
        0.000000   20.000000    0.000000
        0.000000    0.000000   20.000000

outcell: Cell vector modules (Ang)   :   20.000000   20.000000   20.000000
outcell: Cell angles (23,13,12) (deg):     90.0000     90.0000     90.0000
outcell: Cell volume (Ang**3)        :   8000.0000
<dSpData1D:S at geom step 4
  <sparsity:sparsity for geom step 4
    nrows_g=121 nrows=121 sparsity=.9980 nnzs=14611, refcount: 7>
  <dData1D:(new from dSpData1D) n=14611, refcount: 1>
refcount: 1>
new_DM -- step:     5
Re-using DM from previous geometries...
Number of DMs in history: 1
 DM extrapolation coefficients: 
1   1.00000
New DM after history re-use:
<dSpData2D:SpM extrapolated using coords
  <sparsity:sparsity for geom step 4
    nrows_g=121 nrows=121 sparsity=.9980 nnzs=14611, refcount: 8>
  <dData2D:(temp array for extrapolation) n=14611 m=1, refcount: 1>
refcount: 1>
No. of atoms with KB's overlaping orbs in proc 0. Max # of overlaps:      13     117
New grid distribution:   1
           1       1:  108    1:  108    1:  108

InitMesh: MESH =   216 x   216 x   216 =    10077696
InitMesh: (bp) =   108 x   108 x   108 =     1259712
InitMesh: Mesh cutoff (required, used) =   300.000   322.366 Ry
ExtMesh (bp) on 0 =   188 x   188 x   188 =     6644672
PhiOnMesh: Number of (b)points on node 0 =              1259712
PhiOnMesh: nlist on node 0 =              2631362

        iscf     Eharris(eV)        E_KS(eV)     FreeEng(eV)     dDmax    Ef(eV) dHmax(eV)
   scf:    1    -1515.689827    -1515.639158    -1515.639158  0.009074 -3.306784  0.201504
   scf:    2    -1515.626145    -1515.635846    -1515.635846  0.013950 -3.170581  0.412693
   scf:    3    -1515.641540    -1515.640192    -1515.640192  0.009391 -3.260538  0.012800
   scf:    4    -1515.640208    -1515.640200    -1515.640200  0.000225 -3.258612  0.007571
   scf:    5    -1515.640208    -1515.640205    -1515.640205  0.000321 -3.256898  0.002012
   scf:    6    -1515.640205    -1515.640205    -1515.640205  0.000139 -3.256434  0.000626
   scf:    7    -1515.640205    -1515.640205    -1515.640205  0.000078 -3.256223  0.000301

SCF Convergence by DM+H criterion
max |DM_out - DM_in|         :     0.0000779421
max |H_out - H_in|      (eV) :     0.0003014606
SCF cycle converged after 7 iterations

Using DM_out to compute the final energy and forces
No. of atoms with KB's overlaping orbs in proc 0. Max # of overlaps:      13     117

siesta: E_KS(eV) =            -1515.6402

siesta: Atomic forces (eV/Ang):
----------------------------------------
   Tot   -0.034293    0.015096   -0.000000
----------------------------------------
   Max    1.397133
   Res    0.535431    sqrt( Sum f_i^2 / 3N )
----------------------------------------
   Max    1.397133    constrained

Stress-tensor-Voigt (kbar):        0.33        0.22        0.00       -0.28       -0.00        0.00
(Free)E + p*V (eV/cell)    -1516.5598
Target enthalpy (eV/cell)    -1515.6402

                     ====================================
                        Begin FIRE opt. move =      5
                     ====================================

outcoor: Atomic coordinates (Ang):                          
    2.19053860    1.09595952   -0.00000000   1       1  C.gga
    3.40639129    1.81302441   -0.00000000   1       2  C.gga
    3.43410206    3.21912019    0.00000000   1       3  C.gga
    2.20634528    3.95737874   -0.00000000   1       4  C.gga
    0.99028135    3.23226497   -0.00000000   1       5  C.gga
    0.98087908    1.81253484   -0.00000000   1       6  C.gga
    1.42439884    5.74474890    0.00000000   2       7  H.gga
    2.17902226   -0.00872236    0.00000000   2       8  H.gga
    4.37633396    1.23830947   -0.00000000   2       9  H.gga
    4.39113145    3.75750352   -0.00000000   2      10  H.gga
    0.00416650    3.80708680    0.00000000   2      11  H.gga
   -0.00062367    1.27714820   -0.00000000   2      12  H.gga
    2.30514049    5.32220797    0.00000000   3      13  O.gga

outcell: Unit cell vectors (Ang):
       20.000000    0.000000    0.000000
        0.000000   20.000000    0.000000
        0.000000    0.000000   20.000000

outcell: Cell vector modules (Ang)   :   20.000000   20.000000   20.000000
outcell: Cell angles (23,13,12) (deg):     90.0000     90.0000     90.0000
outcell: Cell volume (Ang**3)        :   8000.0000
<dSpData1D:S at geom step 5
  <sparsity:sparsity for geom step 5
    nrows_g=121 nrows=121 sparsity=.9980 nnzs=14611, refcount: 7>
  <dData1D:(new from dSpData1D) n=14611, refcount: 1>
refcount: 1>
new_DM -- step:     6
Re-using DM from previous geometries...
Number of DMs in history: 1
 DM extrapolation coefficients: 
1   1.00000
New DM after history re-use:
<dSpData2D:SpM extrapolated using coords
  <sparsity:sparsity for geom step 5
    nrows_g=121 nrows=121 sparsity=.9980 nnzs=14611, refcount: 8>
  <dData2D:(temp array for extrapolation) n=14611 m=1, refcount: 1>
refcount: 1>
No. of atoms with KB's overlaping orbs in proc 0. Max # of overlaps:      13     117
New grid distribution:   1
           1       1:  108    1:  108    1:  108

InitMesh: MESH =   216 x   216 x   216 =    10077696
InitMesh: (bp) =   108 x   108 x   108 =     1259712
InitMesh: Mesh cutoff (required, used) =   300.000   322.366 Ry
ExtMesh (bp) on 0 =   188 x   188 x   188 =     6644672
PhiOnMesh: Number of (b)points on node 0 =              1259712
PhiOnMesh: nlist on node 0 =              2631398

        iscf     Eharris(eV)        E_KS(eV)     FreeEng(eV)     dDmax    Ef(eV) dHmax(eV)
   scf:    1    -1515.730283    -1515.675031    -1515.675031  0.010570 -3.243888  0.239543
   scf:    2    -1515.655986    -1515.670167    -1515.670167  0.016616 -3.081622  0.492135
   scf:    3    -1515.678480    -1515.676521    -1515.676521  0.011206 -3.188932  0.015311
   scf:    4    -1515.676544    -1515.676533    -1515.676533  0.000268 -3.186594  0.009069
   scf:    5    -1515.676544    -1515.676539    -1515.676539  0.000380 -3.184545  0.002473
   scf:    6    -1515.676540    -1515.676539    -1515.676539  0.000166 -3.183990  0.000755
   scf:    7    -1515.676539    -1515.676539    -1515.676539  0.000095 -3.183731  0.000362

SCF Convergence by DM+H criterion
max |DM_out - DM_in|         :     0.0000949498
max |H_out - H_in|      (eV) :     0.0003616870
SCF cycle converged after 7 iterations

Using DM_out to compute the final energy and forces
No. of atoms with KB's overlaping orbs in proc 0. Max # of overlaps:      13     117

siesta: E_KS(eV) =            -1515.6765

siesta: Atomic forces (eV/Ang):
----------------------------------------
   Tot   -0.036156    0.011606    0.000000
----------------------------------------
   Max    0.955082
   Res    0.356015    sqrt( Sum f_i^2 / 3N )
----------------------------------------
   Max    0.955082    constrained

Stress-tensor-Voigt (kbar):        0.27        0.30        0.00       -0.18       -0.00       -0.00
(Free)E + p*V (eV/cell)    -1516.6390
Target enthalpy (eV/cell)    -1515.6765

                     ====================================
                        Begin FIRE opt. move =      6
                     ====================================

outcoor: Atomic coordinates (Ang):                          
    2.18908401    1.09588974    0.00000000   1       1  C.gga
    3.41159475    1.81036840   -0.00000000   1       2  C.gga
    3.42845420    3.22061631    0.00000000   1       3  C.gga
    2.21095589    3.95038086   -0.00000000   1       4  C.gga
    0.98341930    3.23624165   -0.00000000   1       5  C.gga
    0.97926198    1.81324187   -0.00000000   1       6  C.gga
    1.42439688    5.74363120    0.00000000   2       7  H.gga
    2.17938486   -0.00902762    0.00000000   2       8  H.gga
    4.37306092    1.24066442   -0.00000000   2       9  H.gga
    4.39317847    3.75891714   -0.00000000   2      10  H.gga
    0.00910571    3.80402300   -0.00000000   2      11  H.gga
    0.00117097    1.27813328    0.00000000   2      12  H.gga
    2.30487741    5.32555706    0.00000000   3      13  O.gga

outcell: Unit cell vectors (Ang):
       20.000000    0.000000    0.000000
        0.000000   20.000000    0.000000
        0.000000    0.000000   20.000000

outcell: Cell vector modules (Ang)   :   20.000000   20.000000   20.000000
outcell: Cell angles (23,13,12) (deg):     90.0000     90.0000     90.0000
outcell: Cell volume (Ang**3)        :   8000.0000
<dSpData1D:S at geom step 6
  <sparsity:sparsity for geom step 6
    nrows_g=121 nrows=121 sparsity=.9980 nnzs=14611, refcount: 7>
  <dData1D:(new from dSpData1D) n=14611, refcount: 1>
refcount: 1>
new_DM -- step:     7
Re-using DM from previous geometries...
Number of DMs in history: 1
 DM extrapolation coefficients: 
1   1.00000
New DM after history re-use:
<dSpData2D:SpM extrapolated using coords
  <sparsity:sparsity for geom step 6
    nrows_g=121 nrows=121 sparsity=.9980 nnzs=14611, refcount: 8>
  <dData2D:(temp array for extrapolation) n=14611 m=1, refcount: 1>
refcount: 1>
No. of atoms with KB's overlaping orbs in proc 0. Max # of overlaps:      13     117
New grid distribution:   1
           1       1:  108    1:  108    1:  108

InitMesh: MESH =   216 x   216 x   216 =    10077696
InitMesh: (bp) =   108 x   108 x   108 =     1259712
InitMesh: Mesh cutoff (required, used) =   300.000   322.366 Ry
ExtMesh (bp) on 0 =   188 x   188 x   188 =     6644672
PhiOnMesh: Number of (b)points on node 0 =              1259712
PhiOnMesh: nlist on node 0 =              2631506

        iscf     Eharris(eV)        E_KS(eV)     FreeEng(eV)     dDmax    Ef(eV) dHmax(eV)
   scf:    1    -1515.759889    -1515.697876    -1515.697876  0.013128 -3.171321  0.305607
   scf:    2    -1515.664598    -1515.689323    -1515.689323  0.021291 -2.963772  0.631271
   scf:    3    -1515.703778    -1515.700396    -1515.700396  0.014410 -3.101365  0.019585
   scf:    4    -1515.700432    -1515.700415    -1515.700415  0.000340 -3.098272  0.011585
   scf:    5    -1515.700432    -1515.700425    -1515.700425  0.000479 -3.095626  0.003275
   scf:    6    -1515.700426    -1515.700426    -1515.700426  0.000213 -3.094899  0.000989
   scf:    7    -1515.700426    -1515.700426    -1515.700426  0.000125 -3.094548  0.000454
   scf:    8    -1515.700426    -1515.700426    -1515.700426  0.000021 -3.094518  0.000270

SCF Convergence by DM+H criterion
max |DM_out - DM_in|         :     0.0000212756
max |H_out - H_in|      (eV) :     0.0002703724
SCF cycle converged after 8 iterations

Using DM_out to compute the final energy and forces
No. of atoms with KB's overlaping orbs in proc 0. Max # of overlaps:      13     117

siesta: E_KS(eV) =            -1515.7004

siesta: Atomic forces (eV/Ang):
----------------------------------------
   Tot   -0.035469   -0.001128   -0.000000
----------------------------------------
   Max    0.489494
   Res    0.183298    sqrt( Sum f_i^2 / 3N )
----------------------------------------
   Max    0.489494    constrained

Stress-tensor-Voigt (kbar):        0.19        0.40        0.00       -0.05        0.00        0.00
(Free)E + p*V (eV/cell)    -1516.6797
Target enthalpy (eV/cell)    -1515.7004

                     ====================================
                        Begin FIRE opt. move =      7
                     ====================================

outcoor: Atomic coordinates (Ang):                          
    2.18798996    1.09613611   -0.00000000   1       1  C.gga
    3.41672714    1.80736592   -0.00000000   1       2  C.gga
    3.42309426    3.22168383    0.00000000   1       3  C.gga
    2.21505586    3.94277934   -0.00000000   1       4  C.gga
    0.97582376    3.24032824   -0.00000000   1       5  C.gga
    0.97702624    1.81515315   -0.00000000   1       6  C.gga
    1.42395977    5.74206518    0.00000000   2       7  H.gga
    2.17981870   -0.00947779    0.00000000   2       8  H.gga
    4.36934445    1.24353570    0.00000000   2       9  H.gga
    4.39518618    3.76062019   -0.00000000   2      10  H.gga
    0.01507258    3.80035706   -0.00000000   2      11  H.gga
    0.00342388    1.27933337    0.00000000   2      12  H.gga
    2.30517673    5.32882615   -0.00000000   3      13  O.gga

outcell: Unit cell vectors (Ang):
       20.000000    0.000000    0.000000
        0.000000   20.000000    0.000000
        0.000000    0.000000   20.000000

outcell: Cell vector modules (Ang)   :   20.000000   20.000000   20.000000
outcell: Cell angles (23,13,12) (deg):     90.0000     90.0000     90.0000
outcell: Cell volume (Ang**3)        :   8000.0000
<dSpData1D:S at geom step 7
  <sparsity:sparsity for geom step 7
    nrows_g=121 nrows=121 sparsity=.9980 nnzs=14611, refcount: 7>
  <dData1D:(new from dSpData1D) n=14611, refcount: 1>
refcount: 1>
new_DM -- step:     8
Re-using DM from previous geometries...
Number of DMs in history: 1
 DM extrapolation coefficients: 
1   1.00000
New DM after history re-use:
<dSpData2D:SpM extrapolated using coords
  <sparsity:sparsity for geom step 7
    nrows_g=121 nrows=121 sparsity=.9980 nnzs=14611, refcount: 8>
  <dData2D:(temp array for extrapolation) n=14611 m=1, refcount: 1>
refcount: 1>
No. of atoms with KB's overlaping orbs in proc 0. Max # of overlaps:      13     117
New grid distribution:   1
           1       1:  108    1:  108    1:  108

InitMesh: MESH =   216 x   216 x   216 =    10077696
InitMesh: (bp) =   108 x   108 x   108 =     1259712
InitMesh: Mesh cutoff (required, used) =   300.000   322.366 Ry
ExtMesh (bp) on 0 =   188 x   188 x   188 =     6644672
PhiOnMesh: Number of (b)points on node 0 =              1259712
PhiOnMesh: nlist on node 0 =              2631547

        iscf     Eharris(eV)        E_KS(eV)     FreeEng(eV)     dDmax    Ef(eV) dHmax(eV)
   scf:    1    -1515.756246    -1515.697290    -1515.697290  0.014108 -3.086114  0.339559
   scf:    2    -1515.649710    -1515.684929    -1515.684929  0.023934 -2.855126  0.708754
   scf:    3    -1515.705436    -1515.700690    -1515.700690  0.016278 -3.009029  0.021713
   scf:    4    -1515.700730    -1515.700711    -1515.700711  0.000374 -3.005453  0.012761
   scf:    5    -1515.700730    -1515.700722    -1515.700722  0.000521 -3.002426  0.003686
   scf:    6    -1515.700724    -1515.700723    -1515.700723  0.000235 -3.001582  0.001125
   scf:    7    -1515.700723    -1515.700723    -1515.700723  0.000142 -3.001163  0.000468
   scf:    8    -1515.700723    -1515.700723    -1515.700723  0.000024 -3.001128  0.000302

SCF Convergence by DM+H criterion
max |DM_out - DM_in|         :     0.0000237525
max |H_out - H_in|      (eV) :     0.0003024476
SCF cycle converged after 8 iterations

Using DM_out to compute the final energy and forces
No. of atoms with KB's overlaping orbs in proc 0. Max # of overlaps:      13     117

siesta: E_KS(eV) =            -1515.7007

siesta: Atomic forces (eV/Ang):
----------------------------------------
   Tot   -0.033820   -0.006914   -0.000000
----------------------------------------
   Max    0.721100
   Res    0.253622    sqrt( Sum f_i^2 / 3N )
----------------------------------------
   Max    0.721100    constrained

Stress-tensor-Voigt (kbar):        0.09        0.48        0.00        0.07       -0.00       -0.00
(Free)E + p*V (eV/cell)    -1516.6492
Target enthalpy (eV/cell)    -1515.7007

                     ====================================
                        Begin FIRE opt. move =      8
                     ====================================

outcoor: Atomic coordinates (Ang):                          
    2.18816328    1.09625943   -0.00000000   1       1  C.gga
    3.41639758    1.80740655   -0.00000000   1       2  C.gga
    3.42353055    3.22141870    0.00000000   1       3  C.gga
    2.21459206    3.94295248   -0.00000000   1       4  C.gga
    0.97598961    3.24013239   -0.00000000   1       5  C.gga
    0.97691632    1.81553618   -0.00000000   1       6  C.gga
    1.42381192    5.74194450    0.00000000   2       7  H.gga
    2.17982489   -0.00950482    0.00000000   2       8  H.gga
    4.36938448    1.24358535    0.00000000   2       9  H.gga
    4.39506259    3.76065888   -0.00000000   2      10  H.gga
    0.01513150    3.80033303   -0.00000000   2      11  H.gga
    0.00349096    1.27935931    0.00000000   2      12  H.gga
    2.30538199    5.32862004   -0.00000000   3      13  O.gga

outcell: Unit cell vectors (Ang):
       20.000000    0.000000    0.000000
        0.000000   20.000000    0.000000
        0.000000    0.000000   20.000000

outcell: Cell vector modules (Ang)   :   20.000000   20.000000   20.000000
outcell: Cell angles (23,13,12) (deg):     90.0000     90.0000     90.0000
outcell: Cell volume (Ang**3)        :   8000.0000
<dSpData1D:S at geom step 8
  <sparsity:sparsity for geom step 8
    nrows_g=121 nrows=121 sparsity=.9980 nnzs=14611, refcount: 7>
  <dData1D:(new from dSpData1D) n=14611, refcount: 1>
refcount: 1>
new_DM -- step:     9
Re-using DM from previous geometries...
Number of DMs in history: 1
 DM extrapolation coefficients: 
1   1.00000
New DM after history re-use:
<dSpData2D:SpM extrapolated using coords
  <sparsity:sparsity for geom step 8
    nrows_g=121 nrows=121 sparsity=.9980 nnzs=14611, refcount: 8>
  <dData2D:(temp array for extrapolation) n=14611 m=1, refcount: 1>
refcount: 1>
No. of atoms with KB's overlaping orbs in proc 0. Max # of overlaps:      13     117
New grid distribution:   1
           1       1:  108    1:  108    1:  108

InitMesh: MESH =   216 x   216 x   216 =    10077696
InitMesh: (bp) =   108 x   108 x   108 =     1259712
InitMesh: Mesh cutoff (required, used) =   300.000   322.366 Ry
ExtMesh (bp) on 0 =   188 x   188 x   188 =     6644672
PhiOnMesh: Number of (b)points on node 0 =              1259712
PhiOnMesh: nlist on node 0 =              2631536

        iscf     Eharris(eV)        E_KS(eV)     FreeEng(eV)     dDmax    Ef(eV) dHmax(eV)
   scf:    1    -1515.701512    -1515.702278    -1515.702278  0.000468 -3.002233  0.008419
   scf:    2    -1515.702234    -1515.702267    -1515.702267  0.000349 -3.004272  0.018018
   scf:    3    -1515.702286    -1515.702282    -1515.702282  0.000244 -3.003030  0.000672
   scf:    4    -1515.702282    -1515.702282    -1515.702282  0.000014 -3.003101  0.000399

SCF Convergence by DM+H criterion
max |DM_out - DM_in|         :     0.0000139693
max |H_out - H_in|      (eV) :     0.0003994828
SCF cycle converged after 4 iterations

Using DM_out to compute the final energy and forces
No. of atoms with KB's overlaping orbs in proc 0. Max # of overlaps:      13     117

siesta: E_KS(eV) =            -1515.7023

siesta: Atomic forces (eV/Ang):
----------------------------------------
   Tot   -0.033904   -0.006598    0.000000
----------------------------------------
   Max    0.665497
   Res    0.236367    sqrt( Sum f_i^2 / 3N )
----------------------------------------
   Max    0.665497    constrained

Stress-tensor-Voigt (kbar):        0.09        0.47        0.00        0.06        0.00        0.00
(Free)E + p*V (eV/cell)    -1516.6480
Target enthalpy (eV/cell)    -1515.7023

                     ====================================
                        Begin FIRE opt. move =      9
                     ====================================

outcoor: Atomic coordinates (Ang):                          
    2.18837431    1.09641332   -0.00000000   1       1  C.gga
    3.41599092    1.80745612   -0.00000000   1       2  C.gga
    3.42406717    3.22109139    0.00000000   1       3  C.gga
    2.21402172    3.94316381   -0.00000000   1       4  C.gga
    0.97619333    3.23989178   -0.00000000   1       5  C.gga
    0.97678161    1.81601033   -0.00000000   1       6  C.gga
    1.42362952    5.74179196    0.00000000   2       7  H.gga
    2.17983276   -0.00953757    0.00000000   2       8  H.gga
    4.36943274    1.24364847    0.00000000   2       9  H.gga
    4.39490962    3.76070808    0.00000000   2      10  H.gga
    0.01520639    3.80030214   -0.00000000   2      11  H.gga
    0.00357526    1.27939240    0.00000000   2      12  H.gga
    2.30563504    5.32836425   -0.00000000   3      13  O.gga

outcell: Unit cell vectors (Ang):
       20.000000    0.000000    0.000000
        0.000000   20.000000    0.000000
        0.000000    0.000000   20.000000

outcell: Cell vector modules (Ang)   :   20.000000   20.000000   20.000000
outcell: Cell angles (23,13,12) (deg):     90.0000     90.0000     90.0000
outcell: Cell volume (Ang**3)        :   8000.0000
<dSpData1D:S at geom step 9
  <sparsity:sparsity for geom step 9
    nrows_g=121 nrows=121 sparsity=.9980 nnzs=14611, refcount: 7>
  <dData1D:(new from dSpData1D) n=14611, refcount: 1>
refcount: 1>
new_DM -- step:    10
Re-using DM from previous geometries...
Number of DMs in history: 1
 DM extrapolation coefficients: 
1   1.00000
New DM after history re-use:
<dSpData2D:SpM extrapolated using coords
  <sparsity:sparsity for geom step 9
    nrows_g=121 nrows=121 sparsity=.9980 nnzs=14611, refcount: 8>
  <dData2D:(temp array for extrapolation) n=14611 m=1, refcount: 1>
refcount: 1>
No. of atoms with KB's overlaping orbs in proc 0. Max # of overlaps:      13     117
New grid distribution:   1
           1       1:  108    1:  108    1:  108

InitMesh: MESH =   216 x   216 x   216 =    10077696
InitMesh: (bp) =   108 x   108 x   108 =     1259712
InitMesh: Mesh cutoff (required, used) =   300.000   322.366 Ry
ExtMesh (bp) on 0 =   188 x   188 x   188 =     6644672
PhiOnMesh: Number of (b)points on node 0 =              1259712
PhiOnMesh: nlist on node 0 =              2631510

        iscf     Eharris(eV)        E_KS(eV)     FreeEng(eV)     dDmax    Ef(eV) dHmax(eV)
   scf:    1    -1515.703030    -1515.704046    -1515.704046  0.000604 -3.004667  0.010432
   scf:    2    -1515.703977    -1515.704028    -1515.704028  0.000434 -3.007111  0.022406
   scf:    3    -1515.704058    -1515.704051    -1515.704051  0.000304 -3.005624  0.000834
   scf:    4    -1515.704051    -1515.704051    -1515.704051  0.000016 -3.005711  0.000471

SCF Convergence by DM+H criterion
max |DM_out - DM_in|         :     0.0000162292
max |H_out - H_in|      (eV) :     0.0004707900
SCF cycle converged after 4 iterations

Using DM_out to compute the final energy and forces
No. of atoms with KB's overlaping orbs in proc 0. Max # of overlaps:      13     117

siesta: E_KS(eV) =            -1515.7041

siesta: Atomic forces (eV/Ang):
----------------------------------------
   Tot   -0.033918   -0.005557   -0.000000
----------------------------------------
   Max    0.597170
   Res    0.215243    sqrt( Sum f_i^2 / 3N )
----------------------------------------
   Max    0.597170    constrained

Stress-tensor-Voigt (kbar):        0.10        0.46        0.00        0.05        0.00        0.00
(Free)E + p*V (eV/cell)    -1516.6456
Target enthalpy (eV/cell)    -1515.7041

                     ====================================
                        Begin FIRE opt. move =     10
                     ====================================

outcoor: Atomic coordinates (Ang):                          
    2.18865404    1.09662791   -0.00000000   1       1  C.gga
    3.41543662    1.80752203   -0.00000000   1       2  C.gga
    3.42479371    3.22064497    0.00000000   1       3  C.gga
    2.21324974    3.94344526   -0.00000000   1       4  C.gga
    0.97646842    3.23956686   -0.00000000   1       5  C.gga
    0.97660062    1.81666080   -0.00000000   1       6  C.gga
    1.42338100    5.74157394    0.00000000   2       7  H.gga
    2.17984411   -0.00958046    0.00000000   2       8  H.gga
    4.36949530    1.24373969    0.00000000   2       9  H.gga
    4.39469976    3.76077929    0.00000000   2      10  H.gga
    0.01531458    3.80025658   -0.00000000   2      11  H.gga
    0.00369442    1.27944056    0.00000000   2      12  H.gga
    2.30597931    5.32801161   -0.00000000   3      13  O.gga

outcell: Unit cell vectors (Ang):
       20.000000    0.000000    0.000000
        0.000000   20.000000    0.000000
        0.000000    0.000000   20.000000

outcell: Cell vector modules (Ang)   :   20.000000   20.000000   20.000000
outcell: Cell angles (23,13,12) (deg):     90.0000     90.0000     90.0000
outcell: Cell volume (Ang**3)        :   8000.0000
<dSpData1D:S at geom step 10
  <sparsity:sparsity for geom step 10
    nrows_g=121 nrows=121 sparsity=.9980 nnzs=14611, refcount: 7>
  <dData1D:(new from dSpData1D) n=14611, refcount: 1>
refcount: 1>
new_DM -- step:    11
Re-using DM from previous geometries...
Number of DMs in history: 1
 DM extrapolation coefficients: 
1   1.00000
New DM after history re-use:
<dSpData2D:SpM extrapolated using coords
  <sparsity:sparsity for geom step 10
    nrows_g=121 nrows=121 sparsity=.9980 nnzs=14611, refcount: 8>
  <dData2D:(temp array for extrapolation) n=14611 m=1, refcount: 1>
refcount: 1>
No. of atoms with KB's overlaping orbs in proc 0. Max # of overlaps:      13     117
New grid distribution:   1
           1       1:  108    1:  108    1:  108

InitMesh: MESH =   216 x   216 x   216 =    10077696
InitMesh: (bp) =   108 x   108 x   108 =     1259712
InitMesh: Mesh cutoff (required, used) =   300.000   322.366 Ry
ExtMesh (bp) on 0 =   188 x   188 x   188 =     6644672
PhiOnMesh: Number of (b)points on node 0 =              1259712
PhiOnMesh: nlist on node 0 =              2631508

        iscf     Eharris(eV)        E_KS(eV)     FreeEng(eV)     dDmax    Ef(eV) dHmax(eV)
   scf:    1    -1515.704643    -1515.706183    -1515.706183  0.000825 -3.007872  0.014341
   scf:    2    -1515.706051    -1515.706149    -1515.706149  0.000599 -3.011083  0.030872
   scf:    3    -1515.706205    -1515.706193    -1515.706193  0.000420 -3.009137  0.001138
   scf:    4    -1515.706193    -1515.706193    -1515.706193  0.000022 -3.009255  0.000643

SCF Convergence by DM+H criterion
max |DM_out - DM_in|         :     0.0000223150
max |H_out - H_in|      (eV) :     0.0006425509
SCF cycle converged after 4 iterations

Using DM_out to compute the final energy and forces
No. of atoms with KB's overlaping orbs in proc 0. Max # of overlaps:      13     117

siesta: E_KS(eV) =            -1515.7062

siesta: Atomic forces (eV/Ang):
----------------------------------------
   Tot   -0.033360   -0.003985    0.000000
----------------------------------------
   Max    0.505164
   Res    0.187287    sqrt( Sum f_i^2 / 3N )
----------------------------------------
   Max    0.505164    constrained

Stress-tensor-Voigt (kbar):        0.11        0.44        0.00        0.04       -0.00        0.00
(Free)E + p*V (eV/cell)    -1516.6406
Target enthalpy (eV/cell)    -1515.7062

                     ====================================
                        Begin FIRE opt. move =     11
                     ====================================

outcoor: Atomic coordinates (Ang):                          
    2.18898490    1.09690286   -0.00000000   1       1  C.gga
    3.41475022    1.80760037   -0.00000000   1       2  C.gga
    3.42568442    3.22009132    0.00000000   1       3  C.gga
    2.21230416    3.94378115   -0.00000000   1       4  C.gga
    0.97680405    3.23917068   -0.00000000   1       5  C.gga
    0.97638153    1.81747440   -0.00000000   1       6  C.gga
    1.42307334    5.74128416    0.00000000   2       7  H.gga
    2.17985940   -0.00963012    0.00000000   2       8  H.gga
    4.36956650    1.24386280    0.00000000   2       9  H.gga
    4.39443722    3.76087558    0.00000000   2      10  H.gga
    0.01546041    3.80019348   -0.00000000   2      11  H.gga
    0.00385034    1.27950622   -0.00000000   2      12  H.gga
    2.30640449    5.32756736   -0.00000000   3      13  O.gga

outcell: Unit cell vectors (Ang):
       20.000000    0.000000    0.000000
        0.000000   20.000000    0.000000
        0.000000    0.000000   20.000000

outcell: Cell vector modules (Ang)   :   20.000000   20.000000   20.000000
outcell: Cell angles (23,13,12) (deg):     90.0000     90.0000     90.0000
outcell: Cell volume (Ang**3)        :   8000.0000
<dSpData1D:S at geom step 11
  <sparsity:sparsity for geom step 11
    nrows_g=121 nrows=121 sparsity=.9980 nnzs=14611, refcount: 7>
  <dData1D:(new from dSpData1D) n=14611, refcount: 1>
refcount: 1>
new_DM -- step:    12
Re-using DM from previous geometries...
Number of DMs in history: 1
 DM extrapolation coefficients: 
1   1.00000
New DM after history re-use:
<dSpData2D:SpM extrapolated using coords
  <sparsity:sparsity for geom step 11
    nrows_g=121 nrows=121 sparsity=.9980 nnzs=14611, refcount: 8>
  <dData2D:(temp array for extrapolation) n=14611 m=1, refcount: 1>
refcount: 1>
No. of atoms with KB's overlaping orbs in proc 0. Max # of overlaps:      13     117
New grid distribution:   1
           1       1:  108    1:  108    1:  108

InitMesh: MESH =   216 x   216 x   216 =    10077696
InitMesh: (bp) =   108 x   108 x   108 =     1259712
InitMesh: Mesh cutoff (required, used) =   300.000   322.366 Ry
ExtMesh (bp) on 0 =   188 x   188 x   188 =     6644672
PhiOnMesh: Number of (b)points on node 0 =              1259712
PhiOnMesh: nlist on node 0 =              2631490

        iscf     Eharris(eV)        E_KS(eV)     FreeEng(eV)     dDmax    Ef(eV) dHmax(eV)
   scf:    1    -1515.706232    -1515.708409    -1515.708409  0.001023 -3.012017  0.017964
   scf:    2    -1515.708200    -1515.708355    -1515.708355  0.000755 -3.015734  0.038850
   scf:    3    -1515.708444    -1515.708424    -1515.708424  0.000530 -3.013497  0.001386
   scf:    4    -1515.708425    -1515.708424    -1515.708424  0.000027 -3.013641  0.000784

SCF Convergence by DM+H criterion
max |DM_out - DM_in|         :     0.0000274485
max |H_out - H_in|      (eV) :     0.0007840808
SCF cycle converged after 4 iterations

Using DM_out to compute the final energy and forces
No. of atoms with KB's overlaping orbs in proc 0. Max # of overlaps:      13     117

siesta: E_KS(eV) =            -1515.7084

siesta: Atomic forces (eV/Ang):
----------------------------------------
   Tot   -0.031685   -0.004860   -0.000000
----------------------------------------
   Max    0.400517
   Res    0.154087    sqrt( Sum f_i^2 / 3N )
----------------------------------------
   Max    0.400517    constrained

Stress-tensor-Voigt (kbar):        0.12        0.43        0.00        0.02        0.00       -0.00
(Free)E + p*V (eV/cell)    -1516.6324
Target enthalpy (eV/cell)    -1515.7084

                     ====================================
                        Begin FIRE opt. move =     12
                     ====================================

outcoor: Atomic coordinates (Ang):                          
    2.18934186    1.09723886   -0.00000000   1       1  C.gga
    3.41395219    1.80768558   -0.00000000   1       2  C.gga
    3.42670470    3.21944538    0.00000000   1       3  C.gga
    2.21122316    3.94414900   -0.00000000   1       4  C.gga
    0.97718555    3.23872124   -0.00000000   1       5  C.gga
    0.97613545    1.81843457   -0.00000000   1       6  C.gga
    1.42271571    5.74091143    0.00000000   2       7  H.gga
    2.17987932   -0.00968141    0.00000000   2       8  H.gga
    4.36963806    1.24402419    0.00000000   2       9  H.gga
    4.39412707    3.76100223    0.00000000   2      10  H.gga
    0.01565118    3.80010816   -0.00000000   2      11  H.gga
    0.00404674    1.27959347   -0.00000000   2      12  H.gga
    2.30689692    5.32703714   -0.00000000   3      13  O.gga

outcell: Unit cell vectors (Ang):
       20.000000    0.000000    0.000000
        0.000000   20.000000    0.000000
        0.000000    0.000000   20.000000

outcell: Cell vector modules (Ang)   :   20.000000   20.000000   20.000000
outcell: Cell angles (23,13,12) (deg):     90.0000     90.0000     90.0000
outcell: Cell volume (Ang**3)        :   8000.0000
<dSpData1D:S at geom step 12
  <sparsity:sparsity for geom step 12
    nrows_g=121 nrows=121 sparsity=.9980 nnzs=14611, refcount: 7>
  <dData1D:(new from dSpData1D) n=14611, refcount: 1>
refcount: 1>
new_DM -- step:    13
Re-using DM from previous geometries...
Number of DMs in history: 1
 DM extrapolation coefficients: 
1   1.00000
New DM after history re-use:
<dSpData2D:SpM extrapolated using coords
  <sparsity:sparsity for geom step 12
    nrows_g=121 nrows=121 sparsity=.9980 nnzs=14611, refcount: 8>
  <dData2D:(temp array for extrapolation) n=14611 m=1, refcount: 1>
refcount: 1>
No. of atoms with KB's overlaping orbs in proc 0. Max # of overlaps:      13     117
New grid distribution:   1
           1       1:  108    1:  108    1:  108

InitMesh: MESH =   216 x   216 x   216 =    10077696
InitMesh: (bp) =   108 x   108 x   108 =     1259712
InitMesh: Mesh cutoff (required, used) =   300.000   322.366 Ry
ExtMesh (bp) on 0 =   188 x   188 x   188 =     6644672
PhiOnMesh: Number of (b)points on node 0 =              1259712
PhiOnMesh: nlist on node 0 =              2631421

        iscf     Eharris(eV)        E_KS(eV)     FreeEng(eV)     dDmax    Ef(eV) dHmax(eV)
   scf:    1    -1515.707474    -1515.710433    -1515.710433  0.001194 -3.016976  0.021258
   scf:    2    -1515.710135    -1515.710356    -1515.710356  0.000900 -3.020840  0.046266
   scf:    3    -1515.710483    -1515.710455    -1515.710455  0.000632 -3.018545  0.001579
   scf:    4    -1515.710456    -1515.710455    -1515.710455  0.000032 -3.018707  0.000894

SCF Convergence by DM+H criterion
max |DM_out - DM_in|         :     0.0000317811
max |H_out - H_in|      (eV) :     0.0008944565
SCF cycle converged after 4 iterations

Using DM_out to compute the final energy and forces
No. of atoms with KB's overlaping orbs in proc 0. Max # of overlaps:      13     117

siesta: E_KS(eV) =            -1515.7105

siesta: Atomic forces (eV/Ang):
----------------------------------------
   Tot   -0.031528   -0.003122    0.000000
----------------------------------------
   Max    0.321945
   Res    0.118626    sqrt( Sum f_i^2 / 3N )
----------------------------------------
   Max    0.321945    constrained

Stress-tensor-Voigt (kbar):        0.14        0.41        0.00       -0.01        0.00       -0.00
(Free)E + p*V (eV/cell)    -1516.6206
Target enthalpy (eV/cell)    -1515.7105

                     ====================================
                        Begin FIRE opt. move =     13
                     ====================================

outcoor: Atomic coordinates (Ang):                          
    2.18968897    1.09763858    0.00000000   1       1  C.gga
    3.41306909    1.80776988   -0.00000000   1       2  C.gga
    3.42780804    3.21872605    0.00000000   1       3  C.gga
    2.21005797    3.94451720   -0.00000000   1       4  C.gga
    0.97759296    3.23824382   -0.00000000   1       5  C.gga
    0.97587749    1.81952159   -0.00000000   1       6  C.gga
    1.42231977    5.74043602    0.00000000   2       7  H.gga
    2.17990500   -0.00972646    0.00000000   2       8  H.gga
    4.36969778    1.24423461    0.00000000   2       9  H.gga
    4.39377508    3.76116818    0.00000000   2      10  H.gga
    0.01589892    3.79999319   -0.00000000   2      11  H.gga
    0.00429060    1.27970926   -0.00000000   2      12  H.gga
    2.30743875    5.32642623   -0.00000000   3      13  O.gga

outcell: Unit cell vectors (Ang):
       20.000000    0.000000    0.000000
        0.000000   20.000000    0.000000
        0.000000    0.000000   20.000000

outcell: Cell vector modules (Ang)   :   20.000000   20.000000   20.000000
outcell: Cell angles (23,13,12) (deg):     90.0000     90.0000     90.0000
outcell: Cell volume (Ang**3)        :   8000.0000
<dSpData1D:S at geom step 13
  <sparsity:sparsity for geom step 13
    nrows_g=121 nrows=121 sparsity=.9980 nnzs=14611, refcount: 7>
  <dData1D:(new from dSpData1D) n=14611, refcount: 1>
refcount: 1>
new_DM -- step:    14
Re-using DM from previous geometries...
Number of DMs in history: 1
 DM extrapolation coefficients: 
1   1.00000
New DM after history re-use:
<dSpData2D:SpM extrapolated using coords
  <sparsity:sparsity for geom step 13
    nrows_g=121 nrows=121 sparsity=.9980 nnzs=14611, refcount: 8>
  <dData2D:(temp array for extrapolation) n=14611 m=1, refcount: 1>
refcount: 1>
No. of atoms with KB's overlaping orbs in proc 0. Max # of overlaps:      13     117
New grid distribution:   1
           1       1:  108    1:  108    1:  108

InitMesh: MESH =   216 x   216 x   216 =    10077696
InitMesh: (bp) =   108 x   108 x   108 =     1259712
InitMesh: Mesh cutoff (required, used) =   300.000   322.366 Ry
ExtMesh (bp) on 0 =   188 x   188 x   188 =     6644672
PhiOnMesh: Number of (b)points on node 0 =              1259712
PhiOnMesh: nlist on node 0 =              2631501

        iscf     Eharris(eV)        E_KS(eV)     FreeEng(eV)     dDmax    Ef(eV) dHmax(eV)
   scf:    1    -1515.708075    -1515.712012    -1515.712012  0.001326 -3.022576  0.024173
   scf:    2    -1515.711617    -1515.711909    -1515.711909  0.001032 -3.026081  0.053103
   scf:    3    -1515.712077    -1515.712040    -1515.712040  0.000726 -3.024057  0.001689
   scf:    4    -1515.712041    -1515.712040    -1515.712040  0.000035 -3.024228  0.000966

SCF Convergence by DM+H criterion
max |DM_out - DM_in|         :     0.0000350565
max |H_out - H_in|      (eV) :     0.0009662672
SCF cycle converged after 4 iterations

Using DM_out to compute the final energy and forces
No. of atoms with KB's overlaping orbs in proc 0. Max # of overlaps:      13     117

siesta: E_KS(eV) =            -1515.7120

siesta: Atomic forces (eV/Ang):
----------------------------------------
   Tot   -0.029687   -0.001374    0.000000
----------------------------------------
   Max    0.235450
   Res    0.086928    sqrt( Sum f_i^2 / 3N )
----------------------------------------
   Max    0.235450    constrained

Stress-tensor-Voigt (kbar):        0.15        0.38        0.00       -0.03        0.00       -0.00
(Free)E + p*V (eV/cell)    -1516.6027
Target enthalpy (eV/cell)    -1515.7120

                     ====================================
                        Begin FIRE opt. move =     14
                     ====================================

outcoor: Atomic coordinates (Ang):                          
    2.18997219    1.09810574    0.00000000   1       1  C.gga
[...]
    0.03109939    3.81353851    0.00000000   2      11  H.gga
    0.00411777    1.29841276    0.00000000   2      12  H.gga
    2.29054910    5.31649503   -0.00000001   3      13  O.gga

outcell: Unit cell vectors (Ang):
       20.000000    0.000000    0.000000
        0.000000   20.000000    0.000000
        0.000000    0.000000   20.000000

outcell: Cell vector modules (Ang)   :   20.000000   20.000000   20.000000
outcell: Cell angles (23,13,12) (deg):     90.0000     90.0000     90.0000
outcell: Cell volume (Ang**3)        :   8000.0000
<dSpData1D:S at geom step 113
  <sparsity:sparsity for geom step 113
    nrows_g=121 nrows=121 sparsity=.9980 nnzs=14611, refcount: 7>
  <dData1D:(new from dSpData1D) n=14611, refcount: 1>
refcount: 1>
new_DM -- step:   114
Re-using DM from previous geometries...
Number of DMs in history: 1
 DM extrapolation coefficients: 
1   1.00000
New DM after history re-use:
<dSpData2D:SpM extrapolated using coords
  <sparsity:sparsity for geom step 113
    nrows_g=121 nrows=121 sparsity=.9980 nnzs=14611, refcount: 8>
  <dData2D:(temp array for extrapolation) n=14611 m=1, refcount: 1>
refcount: 1>
No. of atoms with KB's overlaping orbs in proc 0. Max # of overlaps:      13     117
New grid distribution:   1
           1       1:  108    1:  108    1:  108

InitMesh: MESH =   216 x   216 x   216 =    10077696
InitMesh: (bp) =   108 x   108 x   108 =     1259712
InitMesh: Mesh cutoff (required, used) =   300.000   322.366 Ry
ExtMesh (bp) on 0 =   188 x   188 x   188 =     6644672
PhiOnMesh: Number of (b)points on node 0 =              1259712
PhiOnMesh: nlist on node 0 =              2631206

        iscf     Eharris(eV)        E_KS(eV)     FreeEng(eV)     dDmax    Ef(eV) dHmax(eV)
   scf:    1    -1515.727756    -1515.727360    -1515.727360  0.000111 -3.090365  0.002752
   scf:    2    -1515.727351    -1515.727357    -1515.727357  0.000151 -3.091334  0.007188
   scf:    3    -1515.727361    -1515.727360    -1515.727360  0.000110 -3.090644  0.000119
   scf:    4    -1515.727360    -1515.727360    -1515.727360  0.000001 -3.090653  0.000079

SCF Convergence by DM+H criterion
max |DM_out - DM_in|         :     0.0000013917
max |H_out - H_in|      (eV) :     0.0000786304
SCF cycle converged after 4 iterations

Using DM_out to compute the final energy and forces
No. of atoms with KB's overlaping orbs in proc 0. Max # of overlaps:      13     117

siesta: E_KS(eV) =            -1515.7274

siesta: Atomic forces (eV/Ang):
----------------------------------------
   Tot   -0.044977    0.019188    0.000000
----------------------------------------
   Max    0.013190
   Res    0.003443    sqrt( Sum f_i^2 / 3N )
----------------------------------------
   Max    0.013190    constrained

Stress-tensor-Voigt (kbar):        0.00        0.02        0.00       -0.01        0.00        0.00
(Free)E + p*V (eV/cell)    -1515.7678
Target enthalpy (eV/cell)    -1515.7274

                     ====================================
                        Begin FIRE opt. move =    114
                     ====================================

outcoor: Atomic coordinates (Ang):                          
    2.18415082    1.10982344    0.00000000   1       1  C.gga
    3.40979783    1.81172748   -0.00000000   1       2  C.gga
    3.43523737    3.21973362    0.00000000   1       3  C.gga
    2.21612988    3.93849232   -0.00000000   1       4  C.gga
    0.98362478    3.24429735   -0.00000000   1       5  C.gga
    0.97374513    1.83419361    0.00000000   1       6  C.gga
    1.38000849    5.67206721    0.00000001   2       7  H.gga
    2.17268217    0.00303188    0.00000000   2       8  H.gga
    4.36694451    1.25342709    0.00000000   2       9  H.gga
    4.38955825    3.78061686   -0.00000000   2      10  H.gga
    0.03102711    3.81356099    0.00000000   2      11  H.gga
    0.00406625    1.29840027    0.00000000   2      12  H.gga
    2.29014614    5.31656845   -0.00000001   3      13  O.gga

outcell: Unit cell vectors (Ang):
       20.000000    0.000000    0.000000
        0.000000   20.000000    0.000000
        0.000000    0.000000   20.000000

outcell: Cell vector modules (Ang)   :   20.000000   20.000000   20.000000
outcell: Cell angles (23,13,12) (deg):     90.0000     90.0000     90.0000
outcell: Cell volume (Ang**3)        :   8000.0000
<dSpData1D:S at geom step 114
  <sparsity:sparsity for geom step 114
    nrows_g=121 nrows=121 sparsity=.9980 nnzs=14611, refcount: 7>
  <dData1D:(new from dSpData1D) n=14611, refcount: 1>
refcount: 1>
new_DM -- step:   115
Re-using DM from previous geometries...
Number of DMs in history: 1
 DM extrapolation coefficients: 
1   1.00000
New DM after history re-use:
<dSpData2D:SpM extrapolated using coords
  <sparsity:sparsity for geom step 114
    nrows_g=121 nrows=121 sparsity=.9980 nnzs=14611, refcount: 8>
  <dData2D:(temp array for extrapolation) n=14611 m=1, refcount: 1>
refcount: 1>
No. of atoms with KB's overlaping orbs in proc 0. Max # of overlaps:      13     117
New grid distribution:   1
           1       1:  108    1:  108    1:  108

InitMesh: MESH =   216 x   216 x   216 =    10077696
InitMesh: (bp) =   108 x   108 x   108 =     1259712
InitMesh: Mesh cutoff (required, used) =   300.000   322.366 Ry
ExtMesh (bp) on 0 =   188 x   188 x   188 =     6644672
PhiOnMesh: Number of (b)points on node 0 =              1259712
PhiOnMesh: nlist on node 0 =              2631294

        iscf     Eharris(eV)        E_KS(eV)     FreeEng(eV)     dDmax    Ef(eV) dHmax(eV)
   scf:    1    -1515.727826    -1515.727375    -1515.727375  0.000120 -3.090425  0.000913
   scf:    2    -1515.727373    -1515.727374    -1515.727374  0.000055 -3.090856  0.002263
   scf:    3    -1515.727375    -1515.727375    -1515.727375  0.000039 -3.090569  0.000128

SCF Convergence by DM+H criterion
max |DM_out - DM_in|         :     0.0000393186
max |H_out - H_in|      (eV) :     0.0001275572
SCF cycle converged after 3 iterations

Using DM_out to compute the final energy and forces
No. of atoms with KB's overlaping orbs in proc 0. Max # of overlaps:      13     117

siesta: E_KS(eV) =            -1515.7274

siesta: Atomic forces (eV/Ang):
----------------------------------------
   Tot   -0.044712    0.019562    0.000000
----------------------------------------
   Max    0.011851
   Res    0.003425    sqrt( Sum f_i^2 / 3N )
----------------------------------------
   Max    0.011851    constrained

Stress-tensor-Voigt (kbar):        0.00        0.02        0.00       -0.01        0.00        0.00
(Free)E + p*V (eV/cell)    -1515.7700
Target enthalpy (eV/cell)    -1515.7274

                     ====================================
                        Begin FIRE opt. move =    115
                     ====================================

outcoor: Atomic coordinates (Ang):                          
    2.18418106    1.10987177    0.00000000   1       1  C.gga
    3.40976159    1.81185931   -0.00000000   1       2  C.gga
    3.43514011    3.21988107    0.00000000   1       3  C.gga
    2.21591114    3.93856850   -0.00000000   1       4  C.gga
    0.98352482    3.24425273   -0.00000000   1       5  C.gga
    0.97367573    1.83417980    0.00000000   1       6  C.gga
    1.37945086    5.67202947    0.00000001   2       7  H.gga
    2.17270987    0.00308759    0.00000000   2       8  H.gga
    4.36694418    1.25354689    0.00000000   2       9  H.gga
    4.38942396    3.78080994   -0.00000000   2      10  H.gga
    0.03093332    3.81357517    0.00000000   2      11  H.gga
    0.00401114    1.29837701    0.00000000   2      12  H.gga
    2.28967597    5.31666013   -0.00000001   3      13  O.gga

outcell: Unit cell vectors (Ang):
       20.000000    0.000000    0.000000
        0.000000   20.000000    0.000000
        0.000000    0.000000   20.000000

outcell: Cell vector modules (Ang)   :   20.000000   20.000000   20.000000
outcell: Cell angles (23,13,12) (deg):     90.0000     90.0000     90.0000
outcell: Cell volume (Ang**3)        :   8000.0000
<dSpData1D:S at geom step 115
  <sparsity:sparsity for geom step 115
    nrows_g=121 nrows=121 sparsity=.9980 nnzs=14611, refcount: 7>
  <dData1D:(new from dSpData1D) n=14611, refcount: 1>
refcount: 1>
new_DM -- step:   116
Re-using DM from previous geometries...
Number of DMs in history: 1
 DM extrapolation coefficients: 
1   1.00000
New DM after history re-use:
<dSpData2D:SpM extrapolated using coords
  <sparsity:sparsity for geom step 115
    nrows_g=121 nrows=121 sparsity=.9980 nnzs=14611, refcount: 8>
  <dData2D:(temp array for extrapolation) n=14611 m=1, refcount: 1>
refcount: 1>
No. of atoms with KB's overlaping orbs in proc 0. Max # of overlaps:      13     117
New grid distribution:   1
           1       1:  108    1:  108    1:  108

InitMesh: MESH =   216 x   216 x   216 =    10077696
InitMesh: (bp) =   108 x   108 x   108 =     1259712
InitMesh: Mesh cutoff (required, used) =   300.000   322.366 Ry
ExtMesh (bp) on 0 =   188 x   188 x   188 =     6644672
PhiOnMesh: Number of (b)points on node 0 =              1259712
PhiOnMesh: nlist on node 0 =              2631273

        iscf     Eharris(eV)        E_KS(eV)     FreeEng(eV)     dDmax    Ef(eV) dHmax(eV)
   scf:    1    -1515.727850    -1515.727391    -1515.727391  0.000162 -3.090370  0.000846
   scf:    2    -1515.727390    -1515.727391    -1515.727391  0.000052 -3.090736  0.002163
   scf:    3    -1515.727391    -1515.727391    -1515.727391  0.000037 -3.090493  0.000131

SCF Convergence by DM+H criterion
max |DM_out - DM_in|         :     0.0000373139
max |H_out - H_in|      (eV) :     0.0001309269
SCF cycle converged after 3 iterations

Using DM_out to compute the final energy and forces
No. of atoms with KB's overlaping orbs in proc 0. Max # of overlaps:      13     117

siesta: E_KS(eV) =            -1515.7274

siesta: Atomic forces (eV/Ang):
----------------------------------------
   Tot   -0.044364    0.019813   -0.000000
----------------------------------------
   Max    0.010398
   Res    0.003820    sqrt( Sum f_i^2 / 3N )
----------------------------------------
   Max    0.010398    constrained

Stress-tensor-Voigt (kbar):        0.00        0.02        0.00       -0.01       -0.00       -0.00
(Free)E + p*V (eV/cell)    -1515.7719
Target enthalpy (eV/cell)    -1515.7274

                     ====================================
                        Begin FIRE opt. move =    116
                     ====================================

outcoor: Atomic coordinates (Ang):                          
    2.18417317    1.10994243    0.00000000   1       1  C.gga
    3.40972585    1.81202090   -0.00000000   1       2  C.gga
    3.43498156    3.22007658    0.00000000   1       3  C.gga
    2.21569682    3.93865525   -0.00000000   1       4  C.gga
    0.98337473    3.24421865   -0.00000000   1       5  C.gga
    0.97362080    1.83414955    0.00000000   1       6  C.gga
    1.37880583    5.67195440    0.00000001   2       7  H.gga
    2.17275332    0.00315142    0.00000000   2       8  H.gga
    4.36692085    1.25371601    0.00000000   2       9  H.gga
    4.38925917    3.78104538   -0.00000000   2      10  H.gga
    0.03081758    3.81357309    0.00000000   2      11  H.gga
    0.00395109    1.29833863    0.00000000   2      12  H.gga
    2.28912750    5.31677599   -0.00000001   3      13  O.gga

outcell: Unit cell vectors (Ang):
       20.000000    0.000000    0.000000
        0.000000   20.000000    0.000000
        0.000000    0.000000   20.000000

outcell: Cell vector modules (Ang)   :   20.000000   20.000000   20.000000
outcell: Cell angles (23,13,12) (deg):     90.0000     90.0000     90.0000
outcell: Cell volume (Ang**3)        :   8000.0000
<dSpData1D:S at geom step 116
  <sparsity:sparsity for geom step 116
    nrows_g=121 nrows=121 sparsity=.9980 nnzs=14611, refcount: 7>
  <dData1D:(new from dSpData1D) n=14611, refcount: 1>
refcount: 1>
new_DM -- step:   117
Re-using DM from previous geometries...
Number of DMs in history: 1
 DM extrapolation coefficients: 
1   1.00000
New DM after history re-use:
<dSpData2D:SpM extrapolated using coords
  <sparsity:sparsity for geom step 116
    nrows_g=121 nrows=121 sparsity=.9980 nnzs=14611, refcount: 8>
  <dData2D:(temp array for extrapolation) n=14611 m=1, refcount: 1>
refcount: 1>
No. of atoms with KB's overlaping orbs in proc 0. Max # of overlaps:      13     117
New grid distribution:   1
           1       1:  108    1:  108    1:  108

InitMesh: MESH =   216 x   216 x   216 =    10077696
InitMesh: (bp) =   108 x   108 x   108 =     1259712
InitMesh: Mesh cutoff (required, used) =   300.000   322.366 Ry
ExtMesh (bp) on 0 =   188 x   188 x   188 =     6644672
PhiOnMesh: Number of (b)points on node 0 =              1259712
PhiOnMesh: nlist on node 0 =              2631209

        iscf     Eharris(eV)        E_KS(eV)     FreeEng(eV)     dDmax    Ef(eV) dHmax(eV)
   scf:    1    -1515.727801    -1515.727411    -1515.727411  0.000227 -3.090278  0.000853
   scf:    2    -1515.727410    -1515.727411    -1515.727411  0.000040 -3.090494  0.002071
   scf:    3    -1515.727411    -1515.727411    -1515.727411  0.000029 -3.090352  0.000159

SCF Convergence by DM+H criterion
max |DM_out - DM_in|         :     0.0000287485
max |H_out - H_in|      (eV) :     0.0001590201
SCF cycle converged after 3 iterations

Using DM_out to compute the final energy and forces
No. of atoms with KB's overlaping orbs in proc 0. Max # of overlaps:      13     117

siesta: E_KS(eV) =            -1515.7274

siesta: Atomic forces (eV/Ang):
----------------------------------------
   Tot   -0.044155    0.020244   -0.000000
----------------------------------------
   Max    0.009443
   Res    0.003624    sqrt( Sum f_i^2 / 3N )
----------------------------------------
   Max    0.009443    constrained

Stress-tensor-Voigt (kbar):        0.00        0.02        0.00       -0.01        0.00        0.00
(Free)E + p*V (eV/cell)    -1515.7741
Target enthalpy (eV/cell)    -1515.7274

outcoor: Relaxed atomic coordinates (Ang):                  
    2.18417317    1.10994243    0.00000000   1       1  C.gga
    3.40972585    1.81202090   -0.00000000   1       2  C.gga
    3.43498156    3.22007658    0.00000000   1       3  C.gga
    2.21569682    3.93865525   -0.00000000   1       4  C.gga
    0.98337473    3.24421865   -0.00000000   1       5  C.gga
    0.97362080    1.83414955    0.00000000   1       6  C.gga
    1.37880583    5.67195440    0.00000001   2       7  H.gga
    2.17275332    0.00315142    0.00000000   2       8  H.gga
    4.36692085    1.25371601    0.00000000   2       9  H.gga
    4.38925917    3.78104538   -0.00000000   2      10  H.gga
    0.03081758    3.81357309    0.00000000   2      11  H.gga
    0.00395109    1.29833863    0.00000000   2      12  H.gga
    2.28912750    5.31677599   -0.00000001   3      13  O.gga

coxmol: Writing XMOL coordinates into file Phenol.xyz                                                          

siesta: Program's energy decomposition (eV):
siesta: Ebs     =      -458.998374
siesta: Eions   =      2250.705553
siesta: Ena     =       437.887415
siesta: Ekin    =      1024.164012
siesta: Enl     =      -188.593479
siesta: Eso     =         0.000000
siesta: Eldau   =         0.000000
siesta: DEna    =       -44.891387
siesta: DUscf   =         5.317421
siesta: DUext   =         0.000000
siesta: Exc     =      -498.905840
siesta: eta*DQ  =         0.000000
siesta: Emadel  =         0.000000
siesta: Emeta   =         0.000000
siesta: Emolmec =         0.000000
siesta: Ekinion =         0.000000
siesta: Eharris =     -1515.727411
siesta: Etot    =     -1515.727411
siesta: FreeEng =     -1515.727411

siesta: Final energy (eV):
siesta:  Band Struct. =    -458.998374
siesta:       Kinetic =    1024.164012
siesta:       Hartree =    3565.148622
siesta:       Eldau   =       0.000000
siesta:       Eso     =       0.000000
siesta:    Ext. field =       0.000000
siesta:   Exch.-corr. =    -498.905840
siesta:  Ion-electron =   -8041.975387
siesta:       Ion-ion =    2435.841182
siesta:       Ekinion =       0.000000
siesta:         Total =   -1515.727411
siesta:         Fermi =      -3.090352

siesta: Stress tensor (static) (eV/Ang**3):
siesta:     0.000003   -0.000006    0.000000
siesta:    -0.000006    0.000012    0.000000
siesta:     0.000000    0.000000    0.000003

siesta: Cell volume =       8000.000000 Ang**3

siesta: Pressure (static):
siesta:                Solid            Molecule  Units
siesta:          -0.00000006         -0.00000005  Ry/Bohr**3
siesta:          -0.00000584         -0.00000475  eV/Ang**3
siesta:          -0.00935312         -0.00761702  kBar
(Free)E+ p_basis*V_orbitals  =       -1508.493686
(Free)Eharris+ p_basis*V_orbitals  =       -1508.493686

siesta: Electric dipole (a.u.)  =   -0.453879    0.076114    0.000000
siesta: Electric dipole (Debye) =   -1.153646    0.193463    0.000000

timer: Elapsed wall time (sec) =    2344.511
timer: CPU execution times (sec):

Routine            Calls   Time/call    Tot.time        %
siesta                 1    2344.511    2344.511   100.00
Setup                  1       0.268       0.268     0.01
bands                  1       0.000       0.000     0.00
KSV_init               1       0.000       0.000     0.00
IterGeom             117      20.036    2344.225    99.99
state_init           117       0.011       1.304     0.06
hsparse              117       0.001       0.073     0.00
overlap              117       0.009       1.039     0.04
Setup_H0             117       3.022     353.581    15.08
naefs                234       0.000       0.018     0.00
MolMec               234       0.000       0.000     0.00
kinefsm              234       0.007       1.622     0.07
nlefsm               234       0.039       9.070     0.39
DHSCF_Init           117       2.976     348.217    14.85
DHSCF1               117       0.082       9.626     0.41
INITMESH             117       0.000       0.001     0.00
DHSCF2               117       2.894     338.591    14.44
REMESH               117       0.098      11.422     0.49
REORD               3105       0.016      51.023     2.18
PHION                117       1.714     200.531     8.55
COMM_BSC            1701       0.017      28.724     1.23
POISON               792       0.755     597.603    25.49
fft                 1584       0.296     469.286    20.02
IterSCF              441       3.070    1353.678    57.74
setup_H              558       2.419    1349.880    57.58
DHSCF                675       2.919    1970.574    84.05
DHSCF3               675       2.407    1624.727    69.30
rhoofd               675       0.342     230.897     9.85
CellXC               675       0.885     597.601    25.49
cellXC               675       0.885     597.594    25.49
vmat                 675       0.216     145.883     6.22
compute_dm           441       0.006       2.751     0.12
diagon               441       0.005       2.362     0.10
r-eigvec             441       0.005       2.082     0.09
r-buildHS            441       0.000       0.033     0.00
rdiag                441       0.005       2.048     0.09
rdiag1               441       0.000       0.120     0.01
rdiag2               441       0.001       0.290     0.01
rdiag3               441       0.003       1.389     0.06
rdiag4               441       0.001       0.242     0.01
r-buildD             441       0.000       0.212     0.01
MIXER                324       0.000       0.127     0.01
PostSCF              117       5.427     634.985    27.08
DHSCF4               117       2.956     345.846    14.75
dfscf                117       2.479     290.022    12.37
overfsm              117       0.005       0.537     0.02
state_analysis       117       0.002       0.283     0.01
siesta_move          117       0.001       0.116     0.00
Analysis               1       0.002       0.002     0.00
optical                1       0.000       0.000     0.00
  
>> End of run:  22-MAR-2019  14:04:56
Job completed
