10
	Energy:       5.6968855
C         -4.79601        1.52558        0.12922
C         -6.21599        1.99639       -0.01556
N         -7.15249        0.87874        0.05502
H         -6.33488        2.52296       -0.98838
H         -6.43801        2.71073        0.80642
H         -7.01619        0.26736       -0.78258
H         -8.12588        1.25727        0.01421
O         -4.52137        0.21397        0.30177
H         -3.61075       -0.09837        0.40035
O         -3.88517        2.33909        0.09552
