
                           ***********************       
                           *  WELCOME TO SIESTA  *       
                           ***********************       

reinit: Reading from standard input
reinit: Dumped input in INPUT_TMP.98617
************************** Dump of input data file ****************************
# Siesta input file
         # -- SELF-CONSISTENT FIELD --
MeshCutoff                   300 Ry
PAO.EnergyShift              30 meV
XC.Functional                GGA
XC.Authors                   PBE
MaxSCFIterations             1000
         # -- MOLECULAR DYNAMICS --
MD.TypeOfRun                 Broyden
MD.NumCGsteps                100
MD.MaxForceTol               0.01 eV/Ang
MD.VariableCell              true
MD.MaxStressTol              0.01 GPa
         # -- BRILLOUIN ZONE --
%block KgridMonkhorstPack
  17   0   0   0.0
   0  17   0   0.0
   0   0  17   0.0
%endblock KgridMonkhorstPack
Diag.ParallelOverK           true                # Default: false
         # -- MATERIAL --
SystemLabel                  Silver
WriteCoorStep                true
WriteCoorXmol                true
%block ChemicalSpeciesLabel
 1  47  Ag.gga
%endblock ChemicalSpeciesLabel
LatticeConstant              1.000 Ang
%block LatticeVectors
        0.000000    2.042650    2.042650
        2.042650    0.000000    2.042650
        2.042650    2.042650    0.000000
%endblock LatticeVectors
AtomicCoordinatesFormat      ScaledByLatticeVectors
%block AtomicCoordinatesAndAtomicSpecies
    0.00000000    0.00000000    0.00000000 1
%endblock AtomicCoordinatesAndAtomicSpecies
************************** End of input data file *****************************

reinit: -----------------------------------------------------------------------
reinit: System Name: 
reinit: -----------------------------------------------------------------------
reinit: System Label: Silver
reinit: -----------------------------------------------------------------------
Siesta Version: siesta-4.1--736
Architecture  : Darwin
Compiler flags: gfortran -O3 -fPIC -ftree-vectorize
PP flags      : -DFC_HAVE_ABORT
Libraries     : 
SERIAL version

* Running in serial mode
>> Start of run:   8-JUN-2020   1:59:41

initatom: Reading input for the pseudopotentials and atomic orbitals ----------
Species number:   1 Atomic number:   47 Label: Ag.gga

Ground state valence configuration:   5s01  4d10
Reading pseudopotential information in formatted form from Ag.gga.psf

Valence configuration for pseudopotential generation:
5s( 1.00) rc: 2.49
5p( 0.00) rc: 2.72
4d(10.00) rc: 2.49
4f( 0.00) rc: 2.49
For Ag.gga, standard SIESTA heuristics set lmxkb to 3
 (one more than the basis l, including polarization orbitals).
Use PS.lmax or PS.KBprojectors blocks to override.

<basis_specs>
===============================================================================
Ag.gga               Z=  47    Mass=  107.87        Charge= 0.17977+309
Lmxo=2 Lmxkb= 3    BasisType=split      Semic=F
L=0  Nsemic=0  Cnfigmx=5
          n=1  nzeta=2  polorb=1
            splnorm:   0.15000    
               vcte:    0.0000    
               rinn:    0.0000    
               qcoe:    0.0000    
               qyuk:    0.0000    
               qwid:   0.10000E-01
                rcs:    0.0000      0.0000    
            lambdas:    1.0000      1.0000    
L=1  Nsemic=0  Cnfigmx=5
L=2  Nsemic=0  Cnfigmx=4
          n=1  nzeta=2  polorb=0
            splnorm:   0.15000    
               vcte:    0.0000    
               rinn:    0.0000    
               qcoe:    0.0000    
               qyuk:    0.0000    
               qwid:   0.10000E-01
                rcs:    0.0000      0.0000    
            lambdas:    1.0000      1.0000    
-------------------------------------------------------------------------------
L=0  Nkbl=1  erefs: 0.17977+309
L=1  Nkbl=1  erefs: 0.17977+309
L=2  Nkbl=1  erefs: 0.17977+309
L=3  Nkbl=1  erefs: 0.17977+309
===============================================================================
</basis_specs>

atom: Called for Ag.gga                (Z =  47)

read_vps: Pseudopotential generation method:
read_vps: ATM3      Troullier-Martins                       
Total valence charge:   11.00000

read_vps: Pseudopotential includes a core correction:
read_vps: Pseudo-core for xc-correction

xc_check: Exchange-correlation functional:
xc_check: GGA Perdew, Burke & Ernzerhof 1996
V l=0 = -2*Zval/r beyond r=  2.7178
V l=1 = -2*Zval/r beyond r=  2.8931
V l=2 = -2*Zval/r beyond r=  2.7178
V l=3 = -2*Zval/r beyond r=  2.7178
All V_l potentials equal beyond r=  2.6507
This should be close to max(r_c) in ps generation
All pots = -2*Zval/r beyond r=  2.8931

VLOCAL1: 99.0% of the norm of Vloc inside      6.178 Ry
VLOCAL1: 99.9% of the norm of Vloc inside     14.079 Ry
atom: Maximum radius for 4*pi*r*r*local-pseudopot. charge    3.19739
atom: Maximum radius for r*vlocal+2*Zval:    2.82168
GHOST: No ghost state for L =  0
GHOST: No ghost state for L =  1
GHOST: No ghost state for L =  2
GHOST: No ghost state for L =  3

KBgen: Kleinman-Bylander projectors: 
   l= 0   rc=  3.079709   el= -0.293375   Ekb=  3.434366   kbcos=  0.251448
   l= 1   rc=  3.237612   el= -0.056278   Ekb=  1.807669   kbcos=  0.207469
   l= 2   rc=  2.821684   el= -0.581304   Ekb= -7.533464   kbcos= -0.722192
   l= 3   rc=  3.237612   el=  0.003123   Ekb= -2.534780   kbcos= -0.012675

KBgen: Total number of  Kleinman-Bylander projectors:   16
atom: -------------------------------------------------------------------------

atom: SANKEY-TYPE ORBITALS:
atom: Selected multiple-zeta basis: split     

SPLIT: Orbitals with angular momentum L= 0

SPLIT: Basis orbitals for state 5s

SPLIT: PAO cut-off radius determined from an
SPLIT: energy shift=  0.002205 Ry

   izeta = 1
                 lambda =    1.000000
                     rc =    9.252064
                 energy =   -0.291523
                kinetic =    0.247710
    potential(screened) =   -0.539232
       potential(ionic) =   -7.411584

   izeta = 2
                 rmatch =    7.027597
              splitnorm =    0.150000
                 energy =   -0.250707
                kinetic =    0.403016
    potential(screened) =   -0.653724
       potential(ionic) =   -8.154040

SPLIT: Orbitals with angular momentum L= 2

SPLIT: Basis orbitals for state 4d

SPLIT: PAO cut-off radius determined from an
SPLIT: energy shift=  0.002205 Ry

   izeta = 1
                 lambda =    1.000000
                     rc =    5.337954
                 energy =   -0.579526
                kinetic =    5.971465
    potential(screened) =   -6.550990
       potential(ionic) =  -18.285786

   izeta = 2
                 rmatch =    2.585275
              splitnorm =    0.150000
                 energy =   -0.293959
                kinetic =    8.066422
    potential(screened) =   -8.360381
       potential(ionic) =  -21.018038

POLgen: Perturbative polarization orbital with L=  1

POLgen: Polarization orbital for state 5s

   izeta = 1
                     rc =    9.252064
                 energy =   -0.044932
                kinetic =    0.440901
    potential(screened) =   -0.485833
       potential(ionic) =   -6.727543
atom: Total number of Sankey-type orbitals: 15

atm_pop: Valence configuration (for local Pseudopot. screening):
 5s( 1.00)                                                            
 5p( 0.00)                                                            
 4d(10.00)                                                            
Vna: chval, zval:   11.00000  11.00000

Vna:  Cut-off radius for the neutral-atom potential:   9.252064
comcore: Pseudo-core radius Rcore=  3.954440

atom: _________________________________________________________________________

prinput: Basis input ----------------------------------------------------------

PAO.BasisType split     

%block ChemicalSpeciesLabel
    1   47 Ag.gga                  # Species index, atomic number, species label
%endblock ChemicalSpeciesLabel

%block PAO.Basis                 # Define Basis set
Ag.gga                2                    # Species label, number of l-shells
 n=5   0   2 P   1                   # n, l, Nzeta, Polarization, NzetaPol
   9.252      7.028   
   1.000      1.000   
 n=4   2   2                         # n, l, Nzeta 
   5.338      2.585   
   1.000      1.000   
%endblock PAO.Basis

prinput: ----------------------------------------------------------------------

coor:   Atomic-coordinates input format  =     Fractional

siesta: Atomic coordinates (Bohr) and species
siesta:      0.00000   0.00000   0.00000  1        1

siesta: System type = bulk      

initatomlists: Number of atoms, orbitals, and projectors:      1    15    16

coxmol: Writing XMOL coordinates into file Silver.xyz                                                          

siesta: ******************** Simulation parameters ****************************
siesta:
siesta: The following are some of the parameters of the simulation.
siesta: A complete list of the parameters used, including default values,
siesta: can be found in file out.fdf
siesta:
redata: Spin configuration                          = none
redata: Number of spin components                   = 1
redata: Time-Reversal Symmetry                      = T
redata: Spin-spiral                                 = F
redata: Long output                                 =   F
redata: Number of Atomic Species                    =        1
redata: Charge density info will appear in .RHO file
redata: Write Mulliken Pop.                         = NO
redata: Mesh Cutoff                                 =   300.0000 Ry
redata: Net charge of the system                    =     0.0000 |e|
redata: Min. number of SCF Iter                     =        0
redata: Max. number of SCF Iter                     =     1000
redata: SCF mix quantity                            = Hamiltonian
redata: Mix DM or H after convergence               =   F
redata: Recompute H after scf cycle                 =   F
redata: Mix DM in first SCF step                    =   T
redata: Write Pulay info on disk                    =   F
redata: New DM Mixing Weight                        =     0.2500
redata: New DM Occupancy tolerance                  = 0.000000000001
redata: No kicks to SCF
redata: DM Mixing Weight for Kicks                  =     0.5000
redata: Require Harris convergence for SCF          =   F
redata: Harris energy tolerance for SCF             =     0.000100 eV
redata: Require DM convergence for SCF              =   T
redata: DM tolerance for SCF                        =     0.0001
redata: Require EDM convergence for SCF             =   F
redata: EDM tolerance for SCF                       =     0.001000 eV
redata: Require H convergence for SCF               =   T
redata: Hamiltonian tolerance for SCF               =     0.001000 eV
redata: Require (free) Energy convergence for SCF   =   F
redata: (free) Energy tolerance for SCF             =     0.000100 eV
redata: Using Saved Data (generic)                  =   F
redata: Use continuation files for DM               =   F
redata: Neglect nonoverlap interactions             =   F
redata: Method of Calculation                       = Diagonalization
redata: Divide and Conquer                          =   T
redata: Electronic Temperature                      =   299.9869 K
redata: Fix the spin of the system                  =   F
redata: Dynamics option                             = Broyden coord. optimization
redata: Variable cell                               =   T
redata: Maximum number of CG moves                  =      100
redata: Force tolerance                             =     0.0100 eV/Ang
redata: Stress tolerance                            =     0.0100 GPa
mix.SCF: Pulay mixing                            = Pulay
mix.SCF:    Variant                              = stable
mix.SCF:    History steps                        = 2
mix.SCF:    Linear mixing weight                 =     0.250000
mix.SCF:    Mixing weight                        =     0.250000
mix.SCF:    SVD condition                        = 0.1000E-07
redata: ***********************************************************************

%block SCF.Mixers
  Pulay
%endblock SCF.Mixers

%block SCF.Mixer.Pulay
  # Mixing method
  method pulay
  variant stable

  # Mixing options
  weight 0.2500
  weight.linear 0.2500
  history 2
%endblock SCF.Mixer.Pulay

DM_history_depth set to one: no extrapolation allowed by default for geometry relaxation
Size of DM history Fstack: 1
Total number of electrons:    11.000000
Total ionic charge:    11.000000
 Kpoints in:         2601 . Kpoints trimmed:         2457

siesta: k-grid: Number of k-points =  2457
siesta: k-grid: Cutoff (effective) =    24.554 Ang
siesta: k-grid: Supercell and displacements
siesta: k-grid:   17   0   0      0.000
siesta: k-grid:    0  17   0      0.000
siesta: k-grid:    0   0  17      0.000

superc: Internal auxiliary supercell:     9 x     9 x     9  =     729
superc: Number of atoms, orbitals, and projectors:    729  10935  11664


                     ====================================
                        Begin Broyden opt. move =      0
                     ====================================

outcoor: Atomic coordinates (fractional):                   
    0.00000000    0.00000000    0.00000000   1       1  Ag.gga

superc: Internal auxiliary supercell:     9 x     9 x     9  =     729
superc: Number of atoms, orbitals, and projectors:    729  10935  11664

outcell: Unit cell vectors (Ang):
        0.000000    2.042650    2.042650
        2.042650    0.000000    2.042650
        2.042650    2.042650    0.000000

outcell: Cell vector modules (Ang)   :    2.888743    2.888743    2.888743
outcell: Cell angles (23,13,12) (deg):     60.0000     60.0000     60.0000
outcell: Cell volume (Ang**3)        :     17.0456
<dSpData1D:S at geom step 0
  <sparsity:sparsity for geom step 0
    nrows_g=15 nrows=15 sparsity=169.0444 nnzs=38035, refcount: 7>
  <dData1D:(new from dSpData1D) n=38035, refcount: 1>
refcount: 1>
new_DM -- step:     1
Initializing Density Matrix...
DM filled with atomic data:
<dSpData2D:DM initialized from atoms
  <sparsity:sparsity for geom step 0
    nrows_g=15 nrows=15 sparsity=169.0444 nnzs=38035, refcount: 8>
  <dData2D:DM n=38035 m=1, refcount: 1>
refcount: 1>

No. of atoms with KB's overlaping orbs in proc 0. Max # of overlaps:      79     519
New grid distribution:   1
           1       1:   15    1:   15    1:   15

InitMesh: MESH =    30 x    30 x    30 =       27000
InitMesh: (bp) =    15 x    15 x    15 =        3375
InitMesh: Mesh cutoff (required, used) =   300.000   447.113 Ry
ExtMesh (bp) on 0 =   143 x   143 x   143 =     2924207
PhiOnMesh: Number of (b)points on node 0 =                 3375
PhiOnMesh: nlist on node 0 =               564931

stepf: Fermi-Dirac step function

siesta: Program's energy decomposition (eV):
siesta: Ebs     =      -111.976244
siesta: Eions   =      1110.362735
siesta: Ena     =        12.167993
siesta: Ekin    =       772.569748
siesta: Enl     =      -500.300412
siesta: Eso     =         0.000000
siesta: Eldau   =         0.000000
siesta: DEna    =         5.131376
siesta: DUscf   =         0.911343
siesta: DUext   =         0.000000
siesta: Exc     =      -212.640247
siesta: eta*DQ  =         0.000000
siesta: Emadel  =         0.000000
siesta: Emeta   =         0.000000
siesta: Emolmec =         0.000000
siesta: Ekinion =         0.000000
siesta: Eharris =     -1030.526847
siesta: Etot    =     -1032.522935
siesta: FreeEng =     -1032.523538

        iscf     Eharris(eV)        E_KS(eV)     FreeEng(eV)     dDmax    Ef(eV) dHmax(eV)
   scf:    1    -1030.526847    -1032.522935    -1032.523538  2.807901 -3.699603  3.003224
timer: Routine,Calls,Time,% = IterSCF        1       9.177  68.84
   scf:    2    -1033.041690    -1032.809205    -1032.810149  0.499995 -3.959760  1.437704
   scf:    3    -1032.930063    -1032.890398    -1032.891808  0.389148 -4.154656  0.029829
   scf:    4    -1032.890395    -1032.890401    -1032.891810  0.002290 -4.163316  0.017914
   scf:    5    -1032.890405    -1032.890403    -1032.891813  0.003697 -4.169880  0.010945
   scf:    6    -1032.890408    -1032.890406    -1032.891819  0.006146 -4.177987  0.002766
   scf:    7    -1032.890406    -1032.890406    -1032.891819  0.001683 -4.179403  0.001367
   scf:    8    -1032.890406    -1032.890406    -1032.891819  0.000686 -4.179832  0.000487
   scf:    9    -1032.890406    -1032.890406    -1032.891819  0.000064 -4.179805  0.000254

SCF Convergence by DM+H criterion
max |DM_out - DM_in|         :     0.0000643454
max |H_out - H_in|      (eV) :     0.0002537341
SCF cycle converged after 9 iterations

Using DM_out to compute the final energy and forces
No. of atoms with KB's overlaping orbs in proc 0. Max # of overlaps:      79     519

siesta: E_KS(eV) =            -1032.8904

siesta: E_KS - E_eggbox =     -1032.8904

siesta: Atomic forces (eV/Ang):
----------------------------------------
   Tot    0.000000   -0.000000   -0.000000
----------------------------------------
   Max    0.000000
   Res    0.000000    sqrt( Sum f_i^2 / 3N )
----------------------------------------
   Max    0.000000    constrained

Stress-tensor-Voigt (kbar):     -170.99     -170.99     -170.99       -0.07       -0.07       -0.07
(Free)E + p*V (eV/cell)    -1031.0727
Target enthalpy (eV/cell)    -1032.8918

siesta: Stress tensor (static) (eV/Ang**3):
        -0.106720   -0.000043   -0.000043
        -0.000043   -0.106720   -0.000043
        -0.000043   -0.000043   -0.106720

siesta: Pressure (static):        170.98574927  kBar

siesta: Stress tensor (total) (eV/Ang**3):
        -0.106720   -0.000043   -0.000043
        -0.000043   -0.106720   -0.000043
        -0.000043   -0.000043   -0.106720

siesta: Pressure (total):        170.98574927  kBar

Broyden_optim: max_history for broyden:   5
Broyden_optim: cycle on maxit: T
Broyden_optim: initial inverse jacobian:   1.0000

Broyden_optim: No of elements:      9

Broyden_optim: No target stress found, assuming hydrostatic MD.TargetPressure.

Broyden_optim: Target stress (kBar)
Broyden_optim:        -0.000       0.000       0.000
Broyden_optim:         0.000      -0.000       0.000
Broyden_optim:         0.000       0.000      -0.000

                     ====================================
                        Begin Broyden opt. move =      1
                     ====================================

outcoor: Atomic coordinates (fractional):                   
   -0.00000000    0.00000000    0.00000000   1       1  Ag.gga
 Kpoints in:         2601 . Kpoints trimmed:         2457

siesta: k-grid: Number of k-points =  2457
siesta: k-grid: Cutoff (effective) =    24.591 Ang
siesta: k-grid: Supercell and displacements
siesta: k-grid:   17   0   0      0.000
siesta: k-grid:    0  17   0      0.000
siesta: k-grid:    0   0  17      0.000

superc: Internal auxiliary supercell:     9 x     9 x     9  =     729
superc: Number of atoms, orbitals, and projectors:    729  10935  11664

outcell: Unit cell vectors (Ang):
        0.000002    2.045710    2.045710
        2.045710    0.000002    2.045710
        2.045710    2.045710    0.000002

outcell: Cell vector modules (Ang)   :    2.893071    2.893071    2.893071
outcell: Cell angles (23,13,12) (deg):     59.9999     59.9999     59.9999
outcell: Cell volume (Ang**3)        :     17.1223
<dSpData1D:S at geom step 1
  <sparsity:sparsity for geom step 1
    nrows_g=15 nrows=15 sparsity=169.0444 nnzs=38035, refcount: 7>
  <dData1D:(new from dSpData1D) n=38035, refcount: 1>
refcount: 1>
new_DM -- step:     2
Re-using DM from previous geometries...
Number of DMs in history: 1
 DM extrapolation coefficients: 
1   1.00000
New DM after history re-use:
<dSpData2D:SpM extrapolated using coords
  <sparsity:sparsity for geom step 1
    nrows_g=15 nrows=15 sparsity=169.0444 nnzs=38035, refcount: 8>
  <dData2D:(temp array for extrapolation) n=38035 m=1, refcount: 1>
refcount: 1>
No. of atoms with KB's overlaping orbs in proc 0. Max # of overlaps:      79     519
New grid distribution:   1
           1       1:   15    1:   15    1:   15

InitMesh: MESH =    30 x    30 x    30 =       27000
InitMesh: (bp) =    15 x    15 x    15 =        3375
InitMesh: Mesh cutoff (required, used) =   300.000   445.776 Ry
ExtMesh (bp) on 0 =   143 x   143 x   143 =     2924207
PhiOnMesh: Number of (b)points on node 0 =                 3375
PhiOnMesh: nlist on node 0 =               562198

        iscf     Eharris(eV)        E_KS(eV)     FreeEng(eV)     dDmax    Ef(eV) dHmax(eV)
   scf:    1    -1032.902099    -1032.898419    -1032.899829  0.019406 -4.181519  0.020597
   scf:    2    -1032.898391    -1032.898423    -1032.899828  0.011160 -4.186752  0.021190
   scf:    3    -1032.898445    -1032.898439    -1032.899846  0.005690 -4.184136  0.000135
   scf:    4    -1032.898439    -1032.898439    -1032.899846  0.000022 -4.184166  0.000102

SCF Convergence by DM+H criterion
max |DM_out - DM_in|         :     0.0000219984
max |H_out - H_in|      (eV) :     0.0001017845
SCF cycle converged after 4 iterations

Using DM_out to compute the final energy and forces
No. of atoms with KB's overlaping orbs in proc 0. Max # of overlaps:      79     519

siesta: E_KS(eV) =            -1032.8984

siesta: Atomic forces (eV/Ang):
----------------------------------------
   Tot   -0.000000    0.000000   -0.000000
----------------------------------------
   Max    0.000000
   Res    0.000000    sqrt( Sum f_i^2 / 3N )
----------------------------------------
   Max    0.000000    constrained

Stress-tensor-Voigt (kbar):     -164.94     -164.94     -164.94       -0.07       -0.07       -0.07
(Free)E + p*V (eV/cell)    -1031.1372
Target enthalpy (eV/cell)    -1032.8998

siesta: Stress tensor (static) (eV/Ang**3):
        -0.102945   -0.000042   -0.000042
        -0.000042   -0.102945   -0.000042
        -0.000042   -0.000042   -0.102945

siesta: Pressure (static):        164.93774700  kBar

siesta: Stress tensor (total) (eV/Ang**3):
        -0.102945   -0.000042   -0.000042
        -0.000042   -0.102945   -0.000042
        -0.000042   -0.000042   -0.102945

siesta: Pressure (total):        164.93774700  kBar

                     ====================================
                        Begin Broyden opt. move =      2
                     ====================================

outcoor: Atomic coordinates (fractional):                   
    0.00000000   -0.00000000   -0.00000000   1       1  Ag.gga
 Kpoints in:         2601 . Kpoints trimmed:         2457

siesta: k-grid: Number of k-points =  2457
siesta: k-grid: Cutoff (effective) =    25.739 Ang
siesta: k-grid: Supercell and displacements
siesta: k-grid:   17   0   0      0.000
siesta: k-grid:    0  17   0      0.000
siesta: k-grid:    0   0  17      0.000

superc: Internal auxiliary supercell:     9 x     9 x     9  =     729
superc: Number of atoms, orbitals, and projectors:    729  10935  11664

outcell: Unit cell vectors (Ang):
        0.000081    2.141262    2.141262
        2.141262    0.000081    2.141262
        2.141262    2.141262    0.000081

outcell: Cell vector modules (Ang)   :    3.028202    3.028202    3.028202
outcell: Cell angles (23,13,12) (deg):     59.9975     59.9975     59.9975
outcell: Cell volume (Ang**3)        :     19.6343
<dSpData1D:S at geom step 2
  <sparsity:sparsity for geom step 2
    nrows_g=15 nrows=15 sparsity=141.9511 nnzs=31939, refcount: 7>
  <dData1D:(new from dSpData1D) n=31939, refcount: 1>
refcount: 1>
new_DM -- step:     3
Re-using DM from previous geometries...
Number of DMs in history: 1
 DM extrapolation coefficients: 
1   1.00000
New DM after history re-use:
<dSpData2D:SpM extrapolated using coords
  <sparsity:sparsity for geom step 2
    nrows_g=15 nrows=15 sparsity=141.9511 nnzs=31939, refcount: 8>
  <dData2D:(temp array for extrapolation) n=31939 m=1, refcount: 1>
refcount: 1>
Note: For starting DM, Qtot, Tr[D*S] =         11.00000000         10.89237380
No. of atoms with KB's overlaping orbs in proc 0. Max # of overlaps:      55     423
New grid distribution:   1
           1       1:   15    1:   15    1:   15

InitMesh: MESH =    30 x    30 x    30 =       27000
InitMesh: (bp) =    15 x    15 x    15 =        3375
InitMesh: Mesh cutoff (required, used) =   300.000   406.864 Ry
ExtMesh (bp) on 0 =   135 x   135 x   135 =     2460375
PhiOnMesh: Number of (b)points on node 0 =                 3375
PhiOnMesh: nlist on node 0 =               491913

        iscf     Eharris(eV)        E_KS(eV)     FreeEng(eV)     dDmax    Ef(eV) dHmax(eV)
   scf:    1    -1033.022571    -1033.000392    -1033.001494  0.628017 -4.216704  0.718899
   scf:    2    -1032.950493    -1032.997427    -1032.998368  0.267775 -4.371330  0.769535
   scf:    3    -1033.031076    -1033.019997    -1033.021056  0.133776 -4.299209  0.005572
   scf:    4    -1033.020001    -1033.020000    -1033.021059  0.001514 -4.300008  0.004427
   scf:    5    -1033.019999    -1033.020000    -1033.021059  0.000537 -4.301030  0.003291
   scf:    6    -1033.019998    -1033.019999    -1033.021060  0.000935 -4.303457  0.001564
   scf:    7    -1033.019999    -1033.019999    -1033.021060  0.000089 -4.304171  0.000728

SCF Convergence by DM+H criterion
max |DM_out - DM_in|         :     0.0000893720
max |H_out - H_in|      (eV) :     0.0007284275
SCF cycle converged after 7 iterations

Using DM_out to compute the final energy and forces
No. of atoms with KB's overlaping orbs in proc 0. Max # of overlaps:      55     423

siesta: E_KS(eV) =            -1033.0200

siesta: Atomic forces (eV/Ang):
----------------------------------------
   Tot    0.000000    0.000000    0.000000
----------------------------------------
   Max    0.000000
   Res    0.000000    sqrt( Sum f_i^2 / 3N )
----------------------------------------
   Max    0.000000    constrained

Stress-tensor-Voigt (kbar):      -11.31      -11.31      -11.31       -0.06       -0.06       -0.06
(Free)E + p*V (eV/cell)    -1032.8825
Target enthalpy (eV/cell)    -1033.0211

siesta: Stress tensor (static) (eV/Ang**3):
        -0.007058   -0.000038   -0.000038
        -0.000038   -0.007058   -0.000038
        -0.000038   -0.000038   -0.007058

siesta: Pressure (static):         11.30864234  kBar

siesta: Stress tensor (total) (eV/Ang**3):
        -0.007058   -0.000038   -0.000038
        -0.000038   -0.007058   -0.000038
        -0.000038   -0.000038   -0.007058

siesta: Pressure (total):         11.30864234  kBar

                     ====================================
                        Begin Broyden opt. move =      3
                     ====================================

outcoor: Atomic coordinates (fractional):                   
    0.00000000    0.00000000    0.00000000   1       1  Ag.gga
 Kpoints in:         2601 . Kpoints trimmed:         2457

siesta: k-grid: Number of k-points =  2457
siesta: k-grid: Cutoff (effective) =    25.855 Ang
siesta: k-grid: Supercell and displacements
siesta: k-grid:   17   0   0      0.000
siesta: k-grid:    0  17   0      0.000
siesta: k-grid:    0   0  17      0.000

superc: Internal auxiliary supercell:     9 x     9 x     9  =     729
superc: Number of atoms, orbitals, and projectors:    729  10935  11664

outcell: Unit cell vectors (Ang):
        0.000091    2.150919    2.150919
        2.150919    0.000091    2.150919
        2.150919    2.150919    0.000091

outcell: Cell vector modules (Ang)   :    3.041859    3.041859    3.041859
outcell: Cell angles (23,13,12) (deg):     59.9972     59.9972     59.9972
outcell: Cell volume (Ang**3)        :     19.9010
<dSpData1D:S at geom step 3
  <sparsity:sparsity for geom step 3
    nrows_g=15 nrows=15 sparsity=141.9511 nnzs=31939, refcount: 7>
  <dData1D:(new from dSpData1D) n=31939, refcount: 1>
refcount: 1>
new_DM -- step:     4
Re-using DM from previous geometries...
Number of DMs in history: 1
 DM extrapolation coefficients: 
1   1.00000
New DM after history re-use:
<dSpData2D:SpM extrapolated using coords
  <sparsity:sparsity for geom step 3
    nrows_g=15 nrows=15 sparsity=141.9511 nnzs=31939, refcount: 8>
  <dData2D:(temp array for extrapolation) n=31939 m=1, refcount: 1>
refcount: 1>
Note: For starting DM, Qtot, Tr[D*S] =         11.00000000         10.98876141
No. of atoms with KB's overlaping orbs in proc 0. Max # of overlaps:      55     423
New grid distribution:   1
           1       1:   15    1:   15    1:   15

InitMesh: MESH =    30 x    30 x    30 =       27000
InitMesh: (bp) =    15 x    15 x    15 =        3375
InitMesh: Mesh cutoff (required, used) =   300.000   403.217 Ry
ExtMesh (bp) on 0 =   135 x   135 x   135 =     2460375
PhiOnMesh: Number of (b)points on node 0 =                 3375
PhiOnMesh: nlist on node 0 =               485270

        iscf     Eharris(eV)        E_KS(eV)     FreeEng(eV)     dDmax    Ef(eV) dHmax(eV)
   scf:    1    -1033.026241    -1033.020828    -1033.021874  0.053825 -4.300974  0.069866
   scf:    2    -1033.020378    -1033.020814    -1033.021837  0.025037 -4.314798  0.075657
   scf:    3    -1033.021116    -1033.021022    -1033.022058  0.013027 -4.307779  0.000442
   scf:    4    -1033.021022    -1033.021022    -1033.022058  0.000044 -4.307877  0.000335

SCF Convergence by DM+H criterion
max |DM_out - DM_in|         :     0.0000441800
max |H_out - H_in|      (eV) :     0.0003345413
SCF cycle converged after 4 iterations

Using DM_out to compute the final energy and forces
No. of atoms with KB's overlaping orbs in proc 0. Max # of overlaps:      55     423

siesta: E_KS(eV) =            -1033.0210

siesta: Atomic forces (eV/Ang):
----------------------------------------
   Tot   -0.000000   -0.000000   -0.000000
----------------------------------------
   Max    0.000000
   Res    0.000000    sqrt( Sum f_i^2 / 3N )
----------------------------------------
   Max    0.000000    constrained

Stress-tensor-Voigt (kbar):       -1.60       -1.60       -1.60       -0.06       -0.06       -0.06
(Free)E + p*V (eV/cell)    -1033.0022
Target enthalpy (eV/cell)    -1033.0221

siesta: Stress tensor (static) (eV/Ang**3):
        -0.000998   -0.000038   -0.000038
        -0.000038   -0.000998   -0.000038
        -0.000038   -0.000038   -0.000998

siesta: Pressure (static):          1.59844717  kBar

siesta: Stress tensor (total) (eV/Ang**3):
        -0.000998   -0.000038   -0.000038
        -0.000038   -0.000998   -0.000038
        -0.000038   -0.000038   -0.000998

siesta: Pressure (total):          1.59844717  kBar

                     ====================================
                        Begin Broyden opt. move =      4
                     ====================================

outcoor: Atomic coordinates (fractional):                   
   -0.00000000   -0.00000000   -0.00000000   1       1  Ag.gga
 Kpoints in:         2601 . Kpoints trimmed:         2457

siesta: k-grid: Number of k-points =  2457
siesta: k-grid: Cutoff (effective) =    25.874 Ang
siesta: k-grid: Supercell and displacements
siesta: k-grid:   17   0   0      0.000
siesta: k-grid:    0  17   0      0.000
siesta: k-grid:    0   0  17      0.000

superc: Internal auxiliary supercell:     9 x     9 x     9  =     729
superc: Number of atoms, orbitals, and projectors:    729  10935  11664

outcell: Unit cell vectors (Ang):
        0.000095    2.152530    2.152530
        2.152530    0.000095    2.152530
        2.152530    2.152530    0.000095

outcell: Cell vector modules (Ang)   :    3.044137    3.044137    3.044137
outcell: Cell angles (23,13,12) (deg):     59.9971     59.9971     59.9971
outcell: Cell volume (Ang**3)        :     19.9457
<dSpData1D:S at geom step 4
  <sparsity:sparsity for geom step 4
    nrows_g=15 nrows=15 sparsity=141.9511 nnzs=31939, refcount: 7>
  <dData1D:(new from dSpData1D) n=31939, refcount: 1>
refcount: 1>
new_DM -- step:     5
Re-using DM from previous geometries...
Number of DMs in history: 1
 DM extrapolation coefficients: 
1   1.00000
New DM after history re-use:
<dSpData2D:SpM extrapolated using coords
  <sparsity:sparsity for geom step 4
    nrows_g=15 nrows=15 sparsity=141.9511 nnzs=31939, refcount: 8>
  <dData2D:(temp array for extrapolation) n=31939 m=1, refcount: 1>
refcount: 1>
No. of atoms with KB's overlaping orbs in proc 0. Max # of overlaps:      55     423
New grid distribution:   1
           1       1:   15    1:   15    1:   15

InitMesh: MESH =    30 x    30 x    30 =       27000
InitMesh: (bp) =    15 x    15 x    15 =        3375
InitMesh: Mesh cutoff (required, used) =   300.000   402.613 Ry
ExtMesh (bp) on 0 =   135 x   135 x   135 =     2460375
PhiOnMesh: Number of (b)points on node 0 =                 3375
PhiOnMesh: nlist on node 0 =               484286

        iscf     Eharris(eV)        E_KS(eV)     FreeEng(eV)     dDmax    Ef(eV) dHmax(eV)
   scf:    1    -1033.021996    -1033.021046    -1033.022077  0.008448 -4.307521  0.012015
   scf:    2    -1033.021039    -1033.021049    -1033.022076  0.004278 -4.309884  0.013025
   scf:    3    -1033.021054    -1033.021053    -1033.022082  0.002234 -4.308677  0.000074
   scf:    4    -1033.021053    -1033.021053    -1033.022082  0.000006 -4.308694  0.000055

SCF Convergence by DM+H criterion
max |DM_out - DM_in|         :     0.0000056574
max |H_out - H_in|      (eV) :     0.0000553518
SCF cycle converged after 4 iterations

Using DM_out to compute the final energy and forces
No. of atoms with KB's overlaping orbs in proc 0. Max # of overlaps:      55     423

siesta: E_KS(eV) =            -1033.0211

siesta: Atomic forces (eV/Ang):
----------------------------------------
   Tot    0.000000    0.000000   -0.000000
----------------------------------------
   Max    0.000000
   Res    0.000000    sqrt( Sum f_i^2 / 3N )
----------------------------------------
   Max    0.000000    constrained

Stress-tensor-Voigt (kbar):       -0.54       -0.54       -0.54       -0.10       -0.10       -0.10
(Free)E + p*V (eV/cell)    -1033.0154
Target enthalpy (eV/cell)    -1033.0221

siesta: Stress tensor (static) (eV/Ang**3):
        -0.000336   -0.000064   -0.000064
        -0.000064   -0.000336   -0.000064
        -0.000064   -0.000064   -0.000336

siesta: Pressure (static):          0.53895296  kBar

siesta: Stress tensor (total) (eV/Ang**3):
        -0.000336   -0.000064   -0.000064
        -0.000064   -0.000336   -0.000064
        -0.000064   -0.000064   -0.000336

siesta: Pressure (total):          0.53895296  kBar

                     ====================================
                        Begin Broyden opt. move =      5
                     ====================================

outcoor: Atomic coordinates (fractional):                   
    0.00000000   -0.00000000   -0.00000000   1       1  Ag.gga
 Kpoints in:         2601 . Kpoints trimmed:         2457

siesta: k-grid: Number of k-points =  2457
siesta: k-grid: Cutoff (effective) =    25.860 Ang
siesta: k-grid: Supercell and displacements
siesta: k-grid:   17   0   0      0.000
siesta: k-grid:    0  17   0      0.000
siesta: k-grid:    0   0  17      0.000

superc: Internal auxiliary supercell:     9 x     9 x     9  =     729
superc: Number of atoms, orbitals, and projectors:    729  10935  11664

outcell: Unit cell vectors (Ang):
        0.000089    2.151324    2.151324
        2.151324    0.000089    2.151324
        2.151324    2.151324    0.000089

outcell: Cell vector modules (Ang)   :    3.042431    3.042431    3.042431
outcell: Cell angles (23,13,12) (deg):     59.9973     59.9973     59.9973
outcell: Cell volume (Ang**3)        :     19.9123
<dSpData1D:S at geom step 5
  <sparsity:sparsity for geom step 5
    nrows_g=15 nrows=15 sparsity=141.9511 nnzs=31939, refcount: 7>
  <dData1D:(new from dSpData1D) n=31939, refcount: 1>
refcount: 1>
new_DM -- step:     6
Re-using DM from previous geometries...
Number of DMs in history: 1
 DM extrapolation coefficients: 
1   1.00000
New DM after history re-use:
<dSpData2D:SpM extrapolated using coords
  <sparsity:sparsity for geom step 5
    nrows_g=15 nrows=15 sparsity=141.9511 nnzs=31939, refcount: 8>
  <dData2D:(temp array for extrapolation) n=31939 m=1, refcount: 1>
refcount: 1>
No. of atoms with KB's overlaping orbs in proc 0. Max # of overlaps:      55     423
New grid distribution:   1
           1       1:   15    1:   15    1:   15

InitMesh: MESH =    30 x    30 x    30 =       27000
InitMesh: (bp) =    15 x    15 x    15 =        3375
InitMesh: Mesh cutoff (required, used) =   300.000   403.066 Ry
ExtMesh (bp) on 0 =   135 x   135 x   135 =     2460375
PhiOnMesh: Number of (b)points on node 0 =                 3375
PhiOnMesh: nlist on node 0 =               484928

        iscf     Eharris(eV)        E_KS(eV)     FreeEng(eV)     dDmax    Ef(eV) dHmax(eV)
   scf:    1    -1033.020296    -1033.021031    -1033.022064  0.006408 -4.309232  0.008770
   scf:    2    -1033.021017    -1033.021027    -1033.022063  0.003141 -4.307503  0.009505
   scf:    3    -1033.021036    -1033.021032    -1033.022067  0.001642 -4.308387  0.000054
   scf:    4    -1033.021032    -1033.021032    -1033.022067  0.000004 -4.308374  0.000040

SCF Convergence by DM+H criterion
max |DM_out - DM_in|         :     0.0000036839
max |H_out - H_in|      (eV) :     0.0000401779
SCF cycle converged after 4 iterations

Using DM_out to compute the final energy and forces
No. of atoms with KB's overlaping orbs in proc 0. Max # of overlaps:      55     423

siesta: E_KS(eV) =            -1033.0210

siesta: Atomic forces (eV/Ang):
----------------------------------------
   Tot   -0.000000   -0.000000   -0.000000
----------------------------------------
   Max    0.000000
   Res    0.000000    sqrt( Sum f_i^2 / 3N )
----------------------------------------
   Max    0.000000    constrained

Stress-tensor-Voigt (kbar):       -1.45       -1.45       -1.45       -0.06       -0.06       -0.06
(Free)E + p*V (eV/cell)    -1033.0040
Target enthalpy (eV/cell)    -1033.0221

siesta: Stress tensor (static) (eV/Ang**3):
        -0.000905   -0.000038   -0.000038
        -0.000038   -0.000905   -0.000038
        -0.000038   -0.000038   -0.000905

siesta: Pressure (static):          1.45042827  kBar

siesta: Stress tensor (total) (eV/Ang**3):
        -0.000905   -0.000038   -0.000038
        -0.000038   -0.000905   -0.000038
        -0.000038   -0.000038   -0.000905

siesta: Pressure (total):          1.45042827  kBar

                     ====================================
                        Begin Broyden opt. move =      6
                     ====================================

outcoor: Atomic coordinates (fractional):                   
   -0.00000000   -0.00000000   -0.00000000   1       1  Ag.gga
 Kpoints in:         2601 . Kpoints trimmed:         2457

siesta: k-grid: Number of k-points =  2457
siesta: k-grid: Cutoff (effective) =    25.858 Ang
siesta: k-grid: Supercell and displacements
siesta: k-grid:   17   0   0      0.000
siesta: k-grid:    0  17   0      0.000
siesta: k-grid:    0   0  17      0.000

superc: Internal auxiliary supercell:     9 x     9 x     9  =     729
superc: Number of atoms, orbitals, and projectors:    729  10935  11664

outcell: Unit cell vectors (Ang):
        0.000081    2.151172    2.151172
        2.151172    0.000081    2.151172
        2.151172    2.151172    0.000081

outcell: Cell vector modules (Ang)   :    3.042217    3.042217    3.042217
outcell: Cell angles (23,13,12) (deg):     59.9975     59.9975     59.9975
outcell: Cell volume (Ang**3)        :     19.9082
<dSpData1D:S at geom step 6
  <sparsity:sparsity for geom step 6
    nrows_g=15 nrows=15 sparsity=141.9511 nnzs=31939, refcount: 7>
  <dData1D:(new from dSpData1D) n=31939, refcount: 1>
refcount: 1>
new_DM -- step:     7
Re-using DM from previous geometries...
Number of DMs in history: 1
 DM extrapolation coefficients: 
1   1.00000
New DM after history re-use:
<dSpData2D:SpM extrapolated using coords
  <sparsity:sparsity for geom step 6
    nrows_g=15 nrows=15 sparsity=141.9511 nnzs=31939, refcount: 8>
  <dData2D:(temp array for extrapolation) n=31939 m=1, refcount: 1>
refcount: 1>
No. of atoms with KB's overlaping orbs in proc 0. Max # of overlaps:      55     423
New grid distribution:   1
           1       1:   15    1:   15    1:   15

InitMesh: MESH =    30 x    30 x    30 =       27000
InitMesh: (bp) =    15 x    15 x    15 =        3375
InitMesh: Mesh cutoff (required, used) =   300.000   403.124 Ry
ExtMesh (bp) on 0 =   135 x   135 x   135 =     2460375
PhiOnMesh: Number of (b)points on node 0 =                 3375
PhiOnMesh: nlist on node 0 =               485132

        iscf     Eharris(eV)        E_KS(eV)     FreeEng(eV)     dDmax    Ef(eV) dHmax(eV)
   scf:    1    -1033.020939    -1033.021029    -1033.022063  0.000773 -4.308398  0.001107
   scf:    2    -1033.021028    -1033.021028    -1033.022063  0.000397 -4.308180  0.001199
   scf:    3    -1033.021029    -1033.021028    -1033.022063  0.000207 -4.308292  0.000007
   scf:    4    -1033.021028    -1033.021028    -1033.022063  0.000000 -4.308290  0.000005

SCF Convergence by DM+H criterion
max |DM_out - DM_in|         :     0.0000004886
max |H_out - H_in|      (eV) :     0.0000050759
SCF cycle converged after 4 iterations

Using DM_out to compute the final energy and forces
No. of atoms with KB's overlaping orbs in proc 0. Max # of overlaps:      55     423

siesta: E_KS(eV) =            -1033.0210

siesta: Atomic forces (eV/Ang):
----------------------------------------
   Tot    0.000000    0.000000   -0.000000
----------------------------------------
   Max    0.000000
   Res    0.000000    sqrt( Sum f_i^2 / 3N )
----------------------------------------
   Max    0.000000    constrained

Stress-tensor-Voigt (kbar):       -1.31       -1.31       -1.31       -0.12       -0.12       -0.12
(Free)E + p*V (eV/cell)    -1033.0058
Target enthalpy (eV/cell)    -1033.0221

siesta: Stress tensor (static) (eV/Ang**3):
        -0.000816   -0.000076   -0.000076
        -0.000076   -0.000816   -0.000076
        -0.000076   -0.000076   -0.000816

siesta: Pressure (static):          1.30788588  kBar

siesta: Stress tensor (total) (eV/Ang**3):
        -0.000816   -0.000076   -0.000076
        -0.000076   -0.000816   -0.000076
        -0.000076   -0.000076   -0.000816

siesta: Pressure (total):          1.30788588  kBar

                     ====================================
                        Begin Broyden opt. move =      7
                     ====================================

outcoor: Atomic coordinates (fractional):                   
   -0.00000000   -0.00000000    0.00000000   1       1  Ag.gga
 Kpoints in:         2601 . Kpoints trimmed:         2457

siesta: k-grid: Number of k-points =  2457
siesta: k-grid: Cutoff (effective) =    25.882 Ang
siesta: k-grid: Supercell and displacements
siesta: k-grid:   17   0   0      0.000
siesta: k-grid:    0  17   0      0.000
siesta: k-grid:    0   0  17      0.000

superc: Internal auxiliary supercell:     9 x     9 x     9  =     729
superc: Number of atoms, orbitals, and projectors:    729  10935  11664

outcell: Unit cell vectors (Ang):
        0.000103    2.153181    2.153181
        2.153181    0.000103    2.153181
        2.153181    2.153181    0.000103

outcell: Cell vector modules (Ang)   :    3.045057    3.045057    3.045057
outcell: Cell angles (23,13,12) (deg):     59.9968     59.9968     59.9968
outcell: Cell volume (Ang**3)        :     19.9637
<dSpData1D:S at geom step 7
  <sparsity:sparsity for geom step 7
    nrows_g=15 nrows=15 sparsity=141.9511 nnzs=31939, refcount: 7>
  <dData1D:(new from dSpData1D) n=31939, refcount: 1>
refcount: 1>
new_DM -- step:     8
Re-using DM from previous geometries...
Number of DMs in history: 1
 DM extrapolation coefficients: 
1   1.00000
New DM after history re-use:
<dSpData2D:SpM extrapolated using coords
  <sparsity:sparsity for geom step 7
    nrows_g=15 nrows=15 sparsity=141.9511 nnzs=31939, refcount: 8>
  <dData2D:(temp array for extrapolation) n=31939 m=1, refcount: 1>
refcount: 1>
No. of atoms with KB's overlaping orbs in proc 0. Max # of overlaps:      55     423
New grid distribution:   1
           1       1:   15    1:   15    1:   15

InitMesh: MESH =    30 x    30 x    30 =       27000
InitMesh: (bp) =    15 x    15 x    15 =        3375
InitMesh: Mesh cutoff (required, used) =   300.000   402.368 Ry
ExtMesh (bp) on 0 =   135 x   135 x   135 =     2460375
PhiOnMesh: Number of (b)points on node 0 =                 3375
PhiOnMesh: nlist on node 0 =               483872

        iscf     Eharris(eV)        E_KS(eV)     FreeEng(eV)     dDmax    Ef(eV) dHmax(eV)
   scf:    1    -1033.022220    -1033.021049    -1033.022078  0.010573 -4.307462  0.014672
   scf:    2    -1033.021037    -1033.021052    -1033.022076  0.005210 -4.310344  0.015907
   scf:    3    -1033.021061    -1033.021059    -1033.022086  0.002720 -4.308873  0.000090
   scf:    4    -1033.021059    -1033.021059    -1033.022086  0.000007 -4.308893  0.000068

SCF Convergence by DM+H criterion
max |DM_out - DM_in|         :     0.0000069720
max |H_out - H_in|      (eV) :     0.0000676914
SCF cycle converged after 4 iterations

Using DM_out to compute the final energy and forces
No. of atoms with KB's overlaping orbs in proc 0. Max # of overlaps:      55     423

siesta: E_KS(eV) =            -1033.0211

siesta: Atomic forces (eV/Ang):
----------------------------------------
   Tot   -0.000000   -0.000000   -0.000000
----------------------------------------
   Max    0.000000
   Res    0.000000    sqrt( Sum f_i^2 / 3N )
----------------------------------------
   Max    0.000000    constrained

Stress-tensor-Voigt (kbar):        0.05        0.05        0.05       -0.06       -0.06       -0.06
(Free)E + p*V (eV/cell)    -1033.0226
Target enthalpy (eV/cell)    -1033.0221

siesta: Stress tensor (static) (eV/Ang**3):
         0.000028   -0.000036   -0.000036
        -0.000036    0.000028   -0.000036
        -0.000036   -0.000036    0.000028

siesta: Pressure (static):         -0.04509836  kBar

siesta: Stress tensor (total) (eV/Ang**3):
         0.000028   -0.000036   -0.000036
        -0.000036    0.000028   -0.000036
        -0.000036   -0.000036    0.000028

siesta: Pressure (total):         -0.04509836  kBar

outcoor: Relaxed atomic coordinates (fractional):           
   -0.00000000   -0.00000000    0.00000000   1       1  Ag.gga

outcell: Unit cell vectors (Ang):
        0.000103    2.153181    2.153181
        2.153181    0.000103    2.153181
        2.153181    2.153181    0.000103

outcell: Cell vector modules (Ang)   :    3.045057    3.045057    3.045057
outcell: Cell angles (23,13,12) (deg):     59.9968     59.9968     59.9968
outcell: Cell volume (Ang**3)        :     19.9637

coxmol: Writing XMOL coordinates into file Silver.xyz                                                          

siesta: Program's energy decomposition (eV):
siesta: Ebs     =       -96.940320
siesta: Eions   =      1110.362735
siesta: Ena     =        12.757753
siesta: Ekin    =       799.004241
siesta: Enl     =      -521.964633
siesta: Eso     =         0.000000
siesta: Eldau   =         0.000000
siesta: DEna    =         2.412288
siesta: DUscf   =         0.184386
siesta: DUext   =         0.000000
siesta: Exc     =      -215.052359
siesta: eta*DQ  =         0.000000
siesta: Emadel  =         0.000000
siesta: Emeta   =         0.000000
siesta: Emolmec =         0.000000
siesta: Ekinion =         0.000000
siesta: Eharris =     -1033.021059
siesta: Etot    =     -1033.021059
siesta: FreeEng =     -1033.022086

siesta: Final energy (eV):
siesta:  Band Struct. =     -96.940320
siesta:       Kinetic =     799.004241
siesta:       Hartree =     182.884791
siesta:       Eldau   =       0.000000
siesta:       Eso     =       0.000000
siesta:    Ext. field =       0.000000
siesta:   Exch.-corr. =    -215.052359
siesta:  Ion-electron =   -1044.251402
siesta:       Ion-ion =    -755.606330
siesta:       Ekinion =       0.000000
siesta:         Total =   -1033.021059
siesta:         Fermi =      -4.308893

siesta: Stress tensor (static) (eV/Ang**3):
siesta:     0.000028   -0.000036   -0.000036
siesta:    -0.000036    0.000028   -0.000036
siesta:    -0.000036   -0.000036    0.000028

siesta: Constrained stress tensor (static) (eV/Ang**3):
siesta:     0.000028   -0.000036   -0.000036
siesta:    -0.000036    0.000028   -0.000036
siesta:    -0.000036   -0.000036    0.000028

siesta: Cell volume =         19.963669 Ang**3

siesta: Pressure (static):
siesta:                Solid            Molecule  Units
siesta:          -0.00000031         -0.00000031  Ry/Bohr**3
siesta:          -0.00002815         -0.00002815  eV/Ang**3
siesta:          -0.04509836         -0.04509836  kBar
(Free)E+ p_basis*V_orbitals  =       -1031.394620
(Free)Eharris+ p_basis*V_orbitals  =       -1031.394620

timer: Elapsed wall time (sec) =     318.723
timer: CPU execution times (sec):

Routine            Calls   Time/call    Tot.time        %
siesta                 1     313.354     313.354   100.00
Setup                  1       0.222       0.222     0.07
bands                  1       0.000       0.000     0.00
KSV_init               1       0.000       0.000     0.00
IterGeom               8      39.139     313.109    99.92
state_init             8       0.249       1.995     0.64
hsparse                8       0.019       0.152     0.05
overlap                8       0.023       0.181     0.06
Setup_H0               8       2.066      16.528     5.27
naefs                 16       0.000       0.003     0.00
MolMec                16       0.000       0.000     0.00
kinefsm               16       0.016       0.248     0.08
nlefsm                16       0.275       4.402     1.40
DHSCF_Init             8       1.767      14.136     4.51
DHSCF1                 8       0.117       0.939     0.30
INITMESH               8       0.000       0.000     0.00
DHSCF2                 8       1.650      13.197     4.21
REMESH                 8       0.431       3.445     1.10
REORD                232       0.000       0.011     0.00
PHION                  8       1.022       8.175     2.61
COMM_BSC             136       0.000       0.007     0.00
POISON                64       0.001       0.068     0.02
fft                  128       0.000       0.043     0.01
IterSCF               40       6.930     277.202    88.46
setup_H               48       0.679      32.602    10.40
DHSCF                 56       0.851      47.641    15.20
DHSCF3                56       0.676      37.848    12.08
rhoofd                56       0.391      21.909     6.99
CellXC                56       0.029       1.601     0.51
cellXC                56       0.029       1.601     0.51
vmat                  56       0.255      14.254     4.55
compute_dm            40       6.114     244.549    78.04
diagon                40       6.108     244.319    77.97
c-eigval           98280       0.001      75.884    24.22
c-buildHS          98280       0.001      73.085    23.32
cdiag             196560       0.000       8.825     2.82
cdiag1            196560       0.000       0.683     0.22
cdiag2            196560       0.000       1.077     0.34
cdiag3            196560       0.000       5.873     1.87
cdiag4            196560       0.000       0.279     0.09
c-eigvec           98280       0.001      79.205    25.28
c-buildD           98280       0.001      88.510    28.25
MIXER                 32       0.000       0.014     0.00
PostSCF                8       2.170      17.361     5.54
DHSCF4                 8       1.224       9.792     3.12
dfscf                  8       1.044       8.350     2.66
overfsm                8       0.006       0.044     0.01
state_analysis         8       0.001       0.007     0.00
siesta_move            8       0.001       0.006     0.00
Analysis               1       0.019       0.019     0.01
optical                1       0.000       0.000     0.00
  
>> End of run:   8-JUN-2020   2:05:00
Job completed
