
                           ***********************       
                           *  WELCOME TO SIESTA  *       
                           ***********************       

reinit: Reading from input.fdf

reinit: -----------------------------------------------------------------------
reinit: System Name: 
reinit: -----------------------------------------------------------------------
reinit: System Label: LiCoronene
reinit: -----------------------------------------------------------------------
Siesta Version: siesta-4.1--736
Architecture  : unknown
Compiler flags: gfortran -O3 -fPIC -ftree-vectorize -fopenmp
PP flags      : -DFC_HAVE_ABORT
Libraries     : -L/usr/local/opt/openblas/lib -lopenblas -fopenmp
SERIAL version

* Running in serial mode
* Running 4 OpenMP threads.
* Running 4 processes.
* OpenMP version 201511
* OpenMP runtime schedule DYNAMIC, chunks 1
** OpenMP runtime schedule DYNAMIC, chunks 32
>> Start of run:  23-AUG-2019   1:25:37

initatom: Reading input for the pseudopotentials and atomic orbitals ----------
Species number:   1 Atomic number:    6 Label: C.gga
Species number:   2 Atomic number:    1 Label: H.gga

Ground state valence configuration:   2s02  2p02
Reading pseudopotential information in formatted form from C.gga.psf

Valence configuration for pseudopotential generation:
2s( 2.00) rc: 1.54
2p( 2.00) rc: 1.54
3d( 0.00) rc: 1.54
4f( 0.00) rc: 1.54
Ground state valence configuration:   1s01
Reading pseudopotential information in formatted form from H.gga.psf

Valence configuration for pseudopotential generation:
1s( 1.00) rc: 1.31
2p( 0.00) rc: 1.31
3d( 0.00) rc: 0.37
4f( 0.00) rc: 1.31
For C.gga, standard SIESTA heuristics set lmxkb to 3
 (one more than the basis l, including polarization orbitals).
Use PS.lmax or PS.KBprojectors blocks to override.
For H.gga, standard SIESTA heuristics set lmxkb to 2
 (one more than the basis l, including polarization orbitals).
Use PS.lmax or PS.KBprojectors blocks to override.

<basis_specs>
===============================================================================
C.gga                Z=   6    Mass=  12.010        Charge= 0.17977+309
Lmxo=1 Lmxkb= 3    BasisType=split      Semic=F
L=0  Nsemic=0  Cnfigmx=2
          n=1  nzeta=2  polorb=0
            splnorm:   0.15000    
               vcte:    0.0000    
               rinn:    0.0000    
               qcoe:    0.0000    
               qyuk:    0.0000    
               qwid:   0.10000E-01
                rcs:    0.0000      0.0000    
            lambdas:    1.0000      1.0000    
L=1  Nsemic=0  Cnfigmx=2
          n=1  nzeta=2  polorb=1
            splnorm:   0.15000    
               vcte:    0.0000    
               rinn:    0.0000    
               qcoe:    0.0000    
               qyuk:    0.0000    
               qwid:   0.10000E-01
                rcs:    0.0000      0.0000    
            lambdas:    1.0000      1.0000    
-------------------------------------------------------------------------------
L=0  Nkbl=1  erefs: 0.17977+309
L=1  Nkbl=1  erefs: 0.17977+309
L=2  Nkbl=1  erefs: 0.17977+309
L=3  Nkbl=1  erefs: 0.17977+309
===============================================================================
</basis_specs>

atom: Called for C.gga                 (Z =   6)

read_vps: Pseudopotential generation method:
read_vps: ATM3      Troullier-Martins                       
Total valence charge:    4.00000

read_vps: Pseudopotential includes a core correction:
read_vps: Pseudo-core for xc-correction

xc_check: Exchange-correlation functional:
xc_check: GGA Perdew, Burke & Ernzerhof 1996
V l=0 = -2*Zval/r beyond r=  1.5227
V l=1 = -2*Zval/r beyond r=  1.5227
V l=2 = -2*Zval/r beyond r=  1.5227
V l=3 = -2*Zval/r beyond r=  1.5038
All V_l potentials equal beyond r=  1.5227
This should be close to max(r_c) in ps generation
All pots = -2*Zval/r beyond r=  1.5227

VLOCAL1: 99.0% of the norm of Vloc inside     18.722 Ry
VLOCAL1: 99.9% of the norm of Vloc inside     42.668 Ry
atom: Maximum radius for 4*pi*r*r*local-pseudopot. charge    1.83678
atom: Maximum radius for r*vlocal+2*Zval:    1.58088
GHOST: No ghost state for L =  0
GHOST: No ghost state for L =  1
GHOST: No ghost state for L =  2
GHOST: No ghost state for L =  3

KBgen: Kleinman-Bylander projectors: 
   l= 0   rc=  1.704034   el= -1.009801   Ekb=  5.335044   kbcos=  0.316824
   l= 1   rc=  1.704034   el= -0.388707   Ekb= -3.785862   kbcos= -0.366464
   l= 2   rc=  1.791422   el=  0.001971   Ekb= -0.970471   kbcos= -0.009212
   l= 3   rc=  1.859892   el=  0.003065   Ekb= -0.399525   kbcos= -0.001223

KBgen: Total number of  Kleinman-Bylander projectors:   16
atom: -------------------------------------------------------------------------

atom: SANKEY-TYPE ORBITALS:
atom: Selected multiple-zeta basis: split     

SPLIT: Orbitals with angular momentum L= 0

SPLIT: Basis orbitals for state 2s

SPLIT: PAO cut-off radius determined from an
SPLIT: energy shift=  0.002205 Ry

   izeta = 1
                 lambda =    1.000000
                     rc =    5.382558
                 energy =   -1.007983
                kinetic =    0.829025
    potential(screened) =   -1.837009
       potential(ionic) =   -5.376592

   izeta = 2
                 rmatch =    3.475094
              splitnorm =    0.150000
                 energy =   -0.876935
                kinetic =    1.279964
    potential(screened) =   -2.156899
       potential(ionic) =   -5.943761

SPLIT: Orbitals with angular momentum L= 1

SPLIT: Basis orbitals for state 2p

SPLIT: PAO cut-off radius determined from an
SPLIT: energy shift=  0.002205 Ry

   izeta = 1
                 lambda =    1.000000
                     rc =    6.740804
                 energy =   -0.386704
                kinetic =    2.327316
    potential(screened) =   -2.714020
       potential(ionic) =   -6.100339

   izeta = 2
                 rmatch =    3.792903
              splitnorm =    0.150000
                 energy =   -0.270625
                kinetic =    3.420974
    potential(screened) =   -3.691599
       potential(ionic) =   -7.453004

POLgen: Perturbative polarization orbital with L=  2

POLgen: Polarization orbital for state 2p

   izeta = 1
                     rc =    6.740804
                 energy =    0.975645
                kinetic =    2.058046
    potential(screened) =   -1.082401
       potential(ionic) =   -3.782952
atom: Total number of Sankey-type orbitals: 13

atm_pop: Valence configuration (for local Pseudopot. screening):
 2s( 2.00)                                                            
 2p( 2.00)                                                            
Vna: chval, zval:    4.00000   4.00000

Vna:  Cut-off radius for the neutral-atom potential:   6.740804
comcore: Pseudo-core radius Rcore=  1.791422

atom: _________________________________________________________________________

<basis_specs>
===============================================================================
H.gga                Z=   1    Mass=  1.0100        Charge= 0.17977+309
Lmxo=0 Lmxkb= 2    BasisType=split      Semic=F
L=0  Nsemic=0  Cnfigmx=1
          n=1  nzeta=2  polorb=1
            splnorm:   0.15000    
               vcte:    0.0000    
               rinn:    0.0000    
               qcoe:    0.0000    
               qyuk:    0.0000    
               qwid:   0.10000E-01
                rcs:    0.0000      0.0000    
            lambdas:    1.0000      1.0000    
-------------------------------------------------------------------------------
L=0  Nkbl=1  erefs: 0.17977+309
L=1  Nkbl=1  erefs: 0.17977+309
L=2  Nkbl=1  erefs: 0.17977+309
===============================================================================
</basis_specs>

atom: Called for H.gga                 (Z =   1)

read_vps: Pseudopotential generation method:
read_vps: ATM3      Troullier-Martins                       
Total valence charge:    1.00000

xc_check: Exchange-correlation functional:
xc_check: GGA Perdew, Burke & Ernzerhof 1996
V l=0 = -2*Zval/r beyond r=  1.2977
V l=1 = -2*Zval/r beyond r=  1.2815
V l=2 = -2*Zval/r beyond r=  1.2656
All V_l potentials equal beyond r=  1.2977
This should be close to max(r_c) in ps generation
All pots = -2*Zval/r beyond r=  1.2977

VLOCAL1: 99.0% of the norm of Vloc inside     25.776 Ry
VLOCAL1: 99.9% of the norm of Vloc inside     58.745 Ry
atom: Maximum radius for 4*pi*r*r*local-pseudopot. charge    1.52711
atom: Maximum radius for r*vlocal+2*Zval:    1.28155
GHOST: No ghost state for L =  0
GHOST: No ghost state for L =  1
GHOST: No ghost state for L =  2

KBgen: Kleinman-Bylander projectors: 
   l= 0   rc=  1.434438   el= -0.477200   Ekb= -1.957043   kbcos= -0.361614
   l= 1   rc=  1.508111   el=  0.001076   Ekb= -0.424224   kbcos= -0.025441
   l= 2   rc=  1.527112   el=  0.002010   Ekb= -0.378578   kbcos= -0.002010

KBgen: Total number of  Kleinman-Bylander projectors:    9
atom: -------------------------------------------------------------------------

atom: SANKEY-TYPE ORBITALS:
atom: Selected multiple-zeta basis: split     

SPLIT: Orbitals with angular momentum L= 0

SPLIT: Basis orbitals for state 1s

SPLIT: PAO cut-off radius determined from an
SPLIT: energy shift=  0.002205 Ry

   izeta = 1
                 lambda =    1.000000
                     rc =    6.518340
                 energy =   -0.475328
                kinetic =    0.879188
    potential(screened) =   -1.354517
       potential(ionic) =   -1.873657

   izeta = 2
                 rmatch =    4.103729
              splitnorm =    0.150000
                 energy =   -0.382914
                kinetic =    1.427335
    potential(screened) =   -1.810249
       potential(ionic) =   -2.357086

POLgen: Perturbative polarization orbital with L=  1

POLgen: Polarization orbital for state 1s

   izeta = 1
                     rc =    6.518340
                 energy =    0.536347
                kinetic =    1.136516
    potential(screened) =   -0.600169
       potential(ionic) =   -1.065665
atom: Total number of Sankey-type orbitals:  5

atm_pop: Valence configuration (for local Pseudopot. screening):
 1s( 1.00)                                                            
Vna: chval, zval:    1.00000   1.00000

Vna:  Cut-off radius for the neutral-atom potential:   6.518340

atom: _________________________________________________________________________

prinput: Basis input ----------------------------------------------------------

PAO.BasisType split     

%block ChemicalSpeciesLabel
    1    6 C.gga                   # Species index, atomic number, species label
    2    1 H.gga                   # Species index, atomic number, species label
%endblock ChemicalSpeciesLabel

%block PAO.Basis                 # Define Basis set
C.gga                 2                    # Species label, number of l-shells
 n=2   0   2                         # n, l, Nzeta 
   5.383      3.475   
   1.000      1.000   
 n=2   1   2 P   1                   # n, l, Nzeta, Polarization, NzetaPol
   6.741      3.793   
   1.000      1.000   
H.gga                 1                    # Species label, number of l-shells
 n=1   0   2 P   1                   # n, l, Nzeta, Polarization, NzetaPol
   6.518      4.104   
   1.000      1.000   
%endblock PAO.Basis

prinput: ----------------------------------------------------------------------

coor:   Atomic-coordinates input format  =     Cartesian coordinates
coor:                                          (in Angstroms)

siesta: Atomic coordinates (Bohr) and species
siesta:     20.07045  19.73619  19.03422  1        1
siesta:     20.09456  17.21879  19.02672  1        2
siesta:     17.88479  20.97914  19.16081  1        3
siesta:     22.67362  21.13488  18.91275  1        4
siesta:     17.88933  16.02127  19.22895  1        5
siesta:     15.68863  19.75110  19.24318  1        6
siesta:     22.67810  15.86031  18.91207  1        7
siesta:     18.02166  23.82598  18.92140  1        8
siesta:     24.95056  19.84782  18.89751  1        9
siesta:     22.64756  23.84514  18.89810  1       10
siesta:     24.95073  17.15313  18.89748  1       11
siesta:     15.68326  17.23367  19.26605  1       12
siesta:     20.40189  25.14130  18.89708  1       13
siesta:     18.02172  13.17531  18.92688  1       14
siesta:     13.43671  21.19555  18.92879  1       15
siesta:     22.64821  13.15513  18.89835  1       16
siesta:     15.78763  25.14431  18.89976  1       17
siesta:     13.43526  15.80337  18.92990  1       18
siesta:     20.40189  11.85889  18.89708  1       19
siesta:     13.44983  23.79491  18.89744  1       20
siesta:     15.78757  11.85649  18.89969  1       21
siesta:     11.13644  19.80039  18.89748  1       22
siesta:     13.44970  13.20573  18.89797  1       23
siesta:     11.13637  17.20046  18.89727  1       24
siesta:     26.75636  20.82458  18.89528  2       25
siesta:     24.42230  24.86790  18.89663  2       26
siesta:     26.75638  16.17625  18.89544  2       27
siesta:     20.39919  27.19066  18.89619  2       28
siesta:     24.42232  12.13282  18.89665  2       29
siesta:     15.73037  27.19086  18.89370  2       30
siesta:     20.39917   9.81006  18.89595  2       31
siesta:     11.70463  24.86669  18.89215  2       32
siesta:     15.73039   9.80991  18.89277  2       33
siesta:      9.36961  20.82328  18.89579  2       34
siesta:     11.70463  12.13407  18.89188  2       35
siesta:      9.36961  16.17750  18.89572  2       36

siesta: System type = molecule  

initatomlists: Number of atoms, orbitals, and projectors:     36   372   492

coxmol: Writing XMOL coordinates into file LiCoronene.xyz                                                      

siesta: ******************** Simulation parameters ****************************
siesta:
siesta: The following are some of the parameters of the simulation.
siesta: A complete list of the parameters used, including default values,
siesta: can be found in file out.fdf
siesta:
redata: Spin configuration                          = none
redata: Number of spin components                   = 1
redata: Time-Reversal Symmetry                      = T
redata: Spin-spiral                                 = F
redata: Long output                                 =   F
redata: Number of Atomic Species                    =        2
redata: Charge density info will appear in .RHO file
redata: Write Mulliken Pop.                         = NO
redata: Mesh Cutoff                                 =   300.0000 Ry
redata: Net charge of the system                    =     0.0000 |e|
redata: Min. number of SCF Iter                     =        0
redata: Max. number of SCF Iter                     =     1000
redata: SCF mix quantity                            = Hamiltonian
redata: Mix DM or H after convergence               =   F
redata: Recompute H after scf cycle                 =   F
redata: Mix DM in first SCF step                    =   T
redata: Write Pulay info on disk                    =   F
redata: New DM Mixing Weight                        =     0.2500
redata: New DM Occupancy tolerance                  = 0.000000000001
redata: No kicks to SCF
redata: DM Mixing Weight for Kicks                  =     0.5000
redata: Require Harris convergence for SCF          =   F
redata: Harris energy tolerance for SCF             =     0.000100 eV
redata: Require DM convergence for SCF              =   T
redata: DM tolerance for SCF                        =     0.0001
redata: Require EDM convergence for SCF             =   F
redata: EDM tolerance for SCF                       =     0.001000 eV
redata: Require H convergence for SCF               =   T
redata: Hamiltonian tolerance for SCF               =     0.001000 eV
redata: Require (free) Energy convergence for SCF   =   F
redata: (free) Energy tolerance for SCF             =     0.000100 eV
redata: Using Saved Data (generic)                  =   F
redata: Use continuation files for DM               =   F
redata: Neglect nonoverlap interactions             =   F
redata: Method of Calculation                       = Diagonalization
redata: Divide and Conquer                          =   T
redata: Electronic Temperature                      =   299.9869 K
redata: Fix the spin of the system                  =   F
redata: Dynamics option                             = Broyden coord. optimization
redata: Variable cell                               =   F
redata: Maximum number of CG moves                  =     1000
redata: Force tolerance                             =     0.0100 eV/Ang
mix.SCF: Pulay mixing                            = Pulay
mix.SCF:    Variant                              = stable
mix.SCF:    History steps                        = 2
mix.SCF:    Linear mixing weight                 =     0.250000
mix.SCF:    Mixing weight                        =     0.250000
mix.SCF:    SVD condition                        = 0.1000E-07
redata: ***********************************************************************

%block SCF.Mixers
  Pulay
%endblock SCF.Mixers

%block SCF.Mixer.Pulay
  # Mixing method
  method pulay
  variant stable

  # Mixing options
  weight 0.2500
  weight.linear 0.2500
  history 2
%endblock SCF.Mixer.Pulay

DM_history_depth set to one: no extrapolation allowed by default for geometry relaxation
Size of DM history Fstack: 1
Total number of electrons:   108.000000
Total ionic charge:   108.000000
 Kpoints in:            1 . Kpoints trimmed:            1

siesta: k-grid: Number of k-points =     1
siesta: k-grid: Cutoff (effective) =    10.000 Ang
siesta: k-grid: Supercell and displacements
siesta: k-grid:    1   0   0      0.000
siesta: k-grid:    0   1   0      0.000
siesta: k-grid:    0   0   1      0.000


                     ====================================
                        Begin Broyden opt. move =      0
                     ====================================

outcoor: Atomic coordinates (Ang):                          
   10.62082000   10.44394000   10.07247000   1       1  C.gga
   10.63358000    9.11179000   10.06850000   1       2  C.gga
    9.46422000   11.10168000   10.13946000   1       3  C.gga
   11.99836000   11.18409000   10.00819000   1       4  C.gga
    9.46662000    8.47809000   10.17552000   1       5  C.gga
    8.30206000   10.45183000   10.18305000   1       6  C.gga
   12.00073000    8.39291000   10.00783000   1       7  C.gga
    9.53665000   12.60816000   10.01277000   1       8  C.gga
   13.20326000   10.50301000   10.00013000   1       9  C.gga
   11.98457000   12.61830000   10.00044000   1      10  C.gga
   13.20335000    9.07704000   10.00011000   1      11  C.gga
    8.29922000    9.11966000   10.19515000   1      12  C.gga
   10.79621000   13.30420000    9.99990000   1      13  C.gga
    9.53668000    6.97207000   10.01567000   1      14  C.gga
    7.11040000   11.21620000   10.01668000   1      15  C.gga
   11.98491000    6.96139000   10.00057000   1      16  C.gga
    8.35445000   13.30579000   10.00132000   1      17  C.gga
    7.10963000    8.36278000   10.01727000   1      18  C.gga
   10.79621000    6.27545000    9.99990000   1      19  C.gga
    7.11734000   12.59172000   10.00009000   1      20  C.gga
    8.35442000    6.27418000   10.00128000   1      21  C.gga
    5.89315000   10.47791000   10.00011000   1      22  C.gga
    7.11727000    6.98817000   10.00037000   1      23  C.gga
    5.89311000    9.10209000   10.00000000   1      24  C.gga
   14.15885000   11.01989000    9.99895000   2      25  H.gga
   12.92372000   13.15952000    9.99966000   2      26  H.gga
   14.15886000    8.56010000    9.99903000   2      27  H.gga
   10.79478000   14.38867000    9.99943000   2      28  H.gga
   12.92373000    6.42041000    9.99967000   2      29  H.gga
    8.32415000   14.38878000    9.99811000   2      30  H.gga
   10.79477000    5.19126000    9.99930000   2      31  H.gga
    6.19382000   13.15888000    9.99729000   2      32  H.gga
    8.32416000    5.19118000    9.99762000   2      33  H.gga
    4.95818000   11.01920000    9.99922000   2      34  H.gga
    6.19382000    6.42107000    9.99715000   2      35  H.gga
    4.95818000    8.56076000    9.99918000   2      36  H.gga

outcell: Unit cell vectors (Ang):
       20.000000    0.000000    0.000000
        0.000000   20.000000    0.000000
        0.000000    0.000000   20.000000

outcell: Cell vector modules (Ang)   :   20.000000   20.000000   20.000000
outcell: Cell angles (23,13,12) (deg):     90.0000     90.0000     90.0000
outcell: Cell volume (Ang**3)        :   8000.0000
<dSpData1D:S at geom step 0
  <sparsity:sparsity for geom step 0
    nrows_g=372 nrows=372 sparsity=.9049 nnzs=125220, refcount: 7>
  <dData1D:(new from dSpData1D) n=125220, refcount: 1>
refcount: 1>
new_DM -- step:     1
Initializing Density Matrix...
DM filled with atomic data:
<dSpData2D:DM initialized from atoms
  <sparsity:sparsity for geom step 0
    nrows_g=372 nrows=372 sparsity=.9049 nnzs=125220, refcount: 8>
  <dData2D:DM n=125220 m=1, refcount: 1>
refcount: 1>

No. of atoms with KB's overlaping orbs in proc 0. Max # of overlaps:      36     244
New grid distribution:   1
           1       1:  108    1:  108    1:  108

InitMesh: MESH =   216 x   216 x   216 =    10077696
InitMesh: (bp) =   108 x   108 x   108 =     1259712
InitMesh: Mesh cutoff (required, used) =   300.000   322.366 Ry
ExtMesh (bp) on 0 =   188 x   188 x   188 =     6644672
PhiOnMesh: Number of (b)points on node 0 =              1259712
PhiOnMesh: nlist on node 0 =              8486926

stepf: Fermi-Dirac step function

siesta: Program's energy decomposition (eV):
siesta: Ebs     =     -1040.348108
siesta: Eions   =      6359.269204
siesta: Ena     =      1428.144436
siesta: Ekin    =      2922.748240
siesta: Enl     =      -351.380609
siesta: Eso     =         0.000000
siesta: Eldau   =         0.000000
siesta: DEna    =      -258.229481
siesta: DUscf   =        35.107041
siesta: DUext   =         0.000000
siesta: Exc     =     -1490.417470
siesta: eta*DQ  =         0.000000
siesta: Emadel  =         0.000000
siesta: Emeta   =         0.000000
siesta: Emolmec =         0.000000
siesta: Ekinion =         0.000000
siesta: Eharris =     -4030.290183
siesta: Etot    =     -4073.297047
siesta: FreeEng =     -4073.297047

        iscf     Eharris(eV)        E_KS(eV)     FreeEng(eV)     dDmax    Ef(eV) dHmax(eV)
   scf:    1    -4030.290183    -4073.297047    -4073.297047  1.894589 -7.248326  9.834968
timer: Routine,Calls,Time,% = IterSCF        1      15.374  58.86
   scf:    2    -4084.517743    -4079.399648    -4079.399648  0.105259 -6.384568  4.815487
   scf:    3    -4083.418192    -4082.039320    -4082.039320  0.129957 -4.194155  0.895306
   scf:    4    -4082.190094    -4082.119247    -4082.119247  0.010676 -4.130272  0.485208
   scf:    5    -4082.193770    -4082.160181    -4082.160181  0.010846 -4.044589  0.156066
   scf:    6    -4082.167238    -4082.164250    -4082.164250  0.004791 -4.002062  0.018435
   scf:    7    -4082.164613    -4082.164440    -4082.164440  0.000414 -3.997728  0.011065
   scf:    8    -4082.164611    -4082.164533    -4082.164533  0.000388 -3.995147  0.004579
   scf:    9    -4082.164560    -4082.164547    -4082.164547  0.000122 -3.995171  0.002825
   scf:   10    -4082.164557    -4082.164552    -4082.164552  0.000116 -3.995427  0.001558
   scf:   11    -4082.164553    -4082.164553    -4082.164553  0.000054 -3.995656  0.000810

SCF Convergence by DM+H criterion
max |DM_out - DM_in|         :     0.0000536913
max |H_out - H_in|      (eV) :     0.0008102685
SCF cycle converged after 11 iterations

Using DM_out to compute the final energy and forces
No. of atoms with KB's overlaping orbs in proc 0. Max # of overlaps:      36     244

siesta: E_KS(eV) =            -4082.1646

siesta: E_KS - E_eggbox =     -4082.1646

siesta: Atomic forces (eV/Ang):
----------------------------------------
   Tot    0.028322    0.010617   -0.000600
----------------------------------------
   Max    7.364264
   Res    1.768695    sqrt( Sum f_i^2 / 3N )
----------------------------------------
   Max    7.364264    constrained

Stress-tensor-Voigt (kbar):       -6.65       -6.47        0.06        0.00        0.05       -0.02
(Free)E + p*V (eV/cell)    -4060.4327
Target enthalpy (eV/cell)    -4082.1646

Broyden_optim: max_history for broyden:   5
Broyden_optim: cycle on maxit: T
Broyden_optim: initial inverse jacobian:   1.0000

Broyden_optim: No of elements:    108

                     ====================================
                        Begin Broyden opt. move =      1
                     ====================================

outcoor: Atomic coordinates (Ang):                          
   10.76662635   10.50892027   10.06910397   1       1  C.gga
   10.76725568    9.06000171   10.06998206   1       2  C.gga
    9.49053824   11.24356474   10.13018030   1       3  C.gga
   11.93904927   11.19157000   10.01158445   1       4  C.gga
    9.49234916    8.32652212   10.15978521   1       5  C.gga
    8.23265668   10.51658196   10.17400572   1       6  C.gga
   11.94413161    8.38261897   10.01090380   1       7  C.gga
    9.56032895   12.57310001   10.02459237   1       8  C.gga
   13.20605379   10.45726625   10.00002924   1       9  C.gga
   11.97697820   12.60262946   10.00112774   1      10  C.gga
   13.20722550    9.12293745    9.99966578   1      11  C.gga
    8.23573681    9.06124764   10.18709453   1      12  C.gga
   10.78473349   13.28803603    9.99958068   1      13  C.gga
    9.55924274    7.00656921   10.03188061   1      14  C.gga
    7.08779370   11.18711192   10.02956506   1      15  C.gga
   11.97811291    6.97419423   10.00131661   1      16  C.gga
    8.29950566   13.29562080   10.00173746   1      17  C.gga
    7.08569185    8.38982815   10.03137131   1      18  C.gga
   10.78501563    6.29203194    9.99961732   1      19  C.gga
    7.15253593   12.63405624    9.99899691   1      20  C.gga
    8.29977798    6.28423868   10.00171232   1      21  C.gga
    5.89429385   10.47182325    9.99978546   1      22  C.gga
    7.15194525    6.94466909    9.99943585   1      23  C.gga
    5.89413475    9.10836477    9.99919684   1      24  C.gga
   14.16999994   11.03111923    9.99834954   2      25  H.gga
   12.93978774   13.16719748    9.99928048   2      26  H.gga
   14.16999919    8.54893015    9.99837713   2      27  H.gga
   10.79281202   14.40569017    9.99815560   2      28  H.gga
   12.93994942    6.41235736    9.99934333   2      29  H.gga
    8.32647560   14.40673768    9.99684889   2      30  H.gga
   10.79284538    5.17398865    9.99772705   2      31  H.gga
    6.17750379   13.16544057    9.99514566   2      32  H.gga
    8.32639163    5.17309081    9.99589855   2      33  H.gga
    4.93992109   11.02910862    9.99768423   2      34  H.gga
    6.17747345    6.41437494    9.99486839   2      35  H.gga
    4.93994968    8.55084798    9.99744723   2      36  H.gga

outcell: Unit cell vectors (Ang):
       20.000000    0.000000    0.000000
        0.000000   20.000000    0.000000
        0.000000    0.000000   20.000000

outcell: Cell vector modules (Ang)   :   20.000000   20.000000   20.000000
outcell: Cell angles (23,13,12) (deg):     90.0000     90.0000     90.0000
outcell: Cell volume (Ang**3)        :   8000.0000
<dSpData1D:S at geom step 1
  <sparsity:sparsity for geom step 1
    nrows_g=372 nrows=372 sparsity=.9057 nnzs=125340, refcount: 7>
  <dData1D:(new from dSpData1D) n=125340, refcount: 1>
refcount: 1>
new_DM -- step:     2
Re-using DM from previous geometries...
Number of DMs in history: 1
 DM extrapolation coefficients: 
1   1.00000
New DM after history re-use:
<dSpData2D:SpM extrapolated using coords
  <sparsity:sparsity for geom step 1
    nrows_g=372 nrows=372 sparsity=.9057 nnzs=125340, refcount: 8>
  <dData2D:(temp array for extrapolation) n=125340 m=1, refcount: 1>
refcount: 1>
Note: For starting DM, Qtot, Tr[D*S] =        108.00000000        107.86878204
No. of atoms with KB's overlaping orbs in proc 0. Max # of overlaps:      36     244
New grid distribution:   1
           1       1:  108    1:  108    1:  108

InitMesh: MESH =   216 x   216 x   216 =    10077696
InitMesh: (bp) =   108 x   108 x   108 =     1259712
InitMesh: Mesh cutoff (required, used) =   300.000   322.366 Ry
ExtMesh (bp) on 0 =   188 x   188 x   188 =     6644672
PhiOnMesh: Number of (b)points on node 0 =              1259712
PhiOnMesh: nlist on node 0 =              8485339

        iscf     Eharris(eV)        E_KS(eV)     FreeEng(eV)     dDmax    Ef(eV) dHmax(eV)
   scf:    1    -4082.992879    -4082.733112    -4082.733112  0.178801 -3.816563  2.144220
   scf:    2    -4075.196322    -4080.771406    -4080.771406  0.059974 -4.234280  5.458047
   scf:    3    -4083.975267    -4083.272493    -4083.272493  0.042604 -3.849539  0.095554
   scf:    4    -4083.280560    -4083.276906    -4083.276906  0.001817 -3.863593  0.054546
   scf:    5    -4083.279674    -4083.278479    -4083.278479  0.002010 -3.871736  0.018691
   scf:    6    -4083.278782    -4083.278639    -4083.278639  0.000717 -3.871643  0.010385
   scf:    7    -4083.278745    -4083.278697    -4083.278697  0.000662 -3.871370  0.003756
   scf:    8    -4083.278708    -4083.278703    -4083.278703  0.000124 -3.871371  0.002383
   scf:    9    -4083.278708    -4083.278705    -4083.278705  0.000151 -3.871520  0.000690
   scf:   10    -4083.278706    -4083.278706    -4083.278706  0.000032 -3.871632  0.000315

SCF Convergence by DM+H criterion
max |DM_out - DM_in|         :     0.0000322158
max |H_out - H_in|      (eV) :     0.0003154080
SCF cycle converged after 10 iterations

Using DM_out to compute the final energy and forces
No. of atoms with KB's overlaping orbs in proc 0. Max # of overlaps:      36     244

siesta: E_KS(eV) =            -4083.2787

siesta: Atomic forces (eV/Ang):
----------------------------------------
   Tot    0.005194   -0.009042   -0.000341
----------------------------------------
   Max    5.376688
   Res    1.614500    sqrt( Sum f_i^2 / 3N )
----------------------------------------
   Max    5.376688    constrained

Stress-tensor-Voigt (kbar):       -5.56       -6.04        0.00        0.01       -0.04       -0.26
(Free)E + p*V (eV/cell)    -4063.9714
Target enthalpy (eV/cell)    -4083.2787

                     ====================================
                        Begin Broyden opt. move =      2
                     ====================================

outcoor: Atomic coordinates (Ang):                          
   10.73024267   10.49284034   10.07291437   1       1  C.gga
   10.73210340    9.07677160   10.07558217   1       2  C.gga
    9.50452269   11.19118237   10.12993113   1       3  C.gga
   11.97899450   11.19718203   10.01115744   1       4  C.gga
    9.50551997    8.38464137   10.15730274   1       5  C.gga
    8.27912846   10.49079061   10.17335514   1       6  C.gga
   11.98229753    8.37878417   10.01060142   1       7  C.gga
    9.54685590   12.61959903   10.02495893   1       8  C.gga
   13.20626322   10.48357688    9.99980075   1       9  C.gga
   11.97987714   12.61297308   10.00124833   1      10  C.gga
   13.20748280    9.09616511    9.99922567   1      11  C.gga
    8.27823823    9.08451138   10.18556251   1      12  C.gga
   10.78932804   13.29807181    9.99932147   1      13  C.gga
    9.54660565    6.95532432   10.03218308   1      14  C.gga
    7.06719182   11.21842939   10.03084759   1      15  C.gga
   11.98125101    6.96346370   10.00146513   1      16  C.gga
    8.32530724   13.31292836   10.00220632   1      17  C.gga
    7.06873513    8.36097702   10.03349190   1      18  C.gga
   10.78918787    6.28120832    9.99947779   1      19  C.gga
    7.11882626   12.62259573    9.99870290   1      20  C.gga
    8.32500731    6.26644157   10.00239506   1      21  C.gga
    5.87438328   10.47735947    9.99963608   1      22  C.gga
    7.11840205    6.95591660    9.99923677   1      23  C.gga
    5.87416003    9.10257690    9.99887426   1      24  C.gga
   14.16542120   11.02965835    9.99814787   2      25  H.gga
   12.93806065   13.16395646    9.99902127   2      26  H.gga
   14.16583052    8.55038665    9.99811949   2      27  H.gga
   10.79090396   14.40226794    9.99749771   2      28  H.gga
   12.93874338    6.41491099    9.99905766   2      29  H.gga
    8.32614243   14.40567985    9.99639876   2      30  H.gga
   10.79089689    5.17750924    9.99693727   2      31  H.gga
    6.17821304   13.16645369    9.99432708   2      32  H.gga
    8.32609512    5.17412262    9.99531768   2      33  H.gga
    4.93840883   11.02934383    9.99673025   2      34  H.gga
    6.17791691    6.41302964    9.99396098   2      35  H.gga
    4.93833393    8.55066038    9.99637903   2      36  H.gga

outcell: Unit cell vectors (Ang):
       20.000000    0.000000    0.000000
        0.000000   20.000000    0.000000
        0.000000    0.000000   20.000000

outcell: Cell vector modules (Ang)   :   20.000000   20.000000   20.000000
outcell: Cell angles (23,13,12) (deg):     90.0000     90.0000     90.0000
outcell: Cell volume (Ang**3)        :   8000.0000
<dSpData1D:S at geom step 2
  <sparsity:sparsity for geom step 2
    nrows_g=372 nrows=372 sparsity=.9051 nnzs=125252, refcount: 7>
  <dData1D:(new from dSpData1D) n=125252, refcount: 1>
refcount: 1>
new_DM -- step:     3
Re-using DM from previous geometries...
Number of DMs in history: 1
 DM extrapolation coefficients: 
1   1.00000
New DM after history re-use:
<dSpData2D:SpM extrapolated using coords
  <sparsity:sparsity for geom step 2
    nrows_g=372 nrows=372 sparsity=.9051 nnzs=125252, refcount: 8>
  <dData2D:(temp array for extrapolation) n=125252 m=1, refcount: 1>
refcount: 1>
No. of atoms with KB's overlaping orbs in proc 0. Max # of overlaps:      36     244
New grid distribution:   1
           1       1:  108    1:  108    1:  108

InitMesh: MESH =   216 x   216 x   216 =    10077696
InitMesh: (bp) =   108 x   108 x   108 =     1259712
InitMesh: Mesh cutoff (required, used) =   300.000   322.366 Ry
ExtMesh (bp) on 0 =   188 x   188 x   188 =     6644672
PhiOnMesh: Number of (b)points on node 0 =              1259712
PhiOnMesh: nlist on node 0 =              8486009

        iscf     Eharris(eV)        E_KS(eV)     FreeEng(eV)     dDmax    Ef(eV) dHmax(eV)
   scf:    1    -4084.996230    -4084.498603    -4084.498603  0.067851 -3.760313  0.811255
   scf:    2    -4083.570040    -4084.276115    -4084.276115  0.019393 -3.646511  1.893760
   scf:    3    -4084.685878    -4084.594927    -4084.594927  0.013751 -3.698620  0.049850
   scf:    4    -4084.597494    -4084.596333    -4084.596333  0.001111 -3.695798  0.021521
   scf:    5    -4084.597122    -4084.596774    -4084.596774  0.001089 -3.696922  0.014206
   scf:    6    -4084.596884    -4084.596836    -4084.596836  0.000584 -3.698379  0.005982
   scf:    7    -4084.596851    -4084.596844    -4084.596844  0.000251 -3.699042  0.002051
   scf:    8    -4084.596848    -4084.596846    -4084.596846  0.000109 -3.699190  0.001164
   scf:    9    -4084.596848    -4084.596847    -4084.596847  0.000073 -3.699165  0.000507

SCF Convergence by DM+H criterion
max |DM_out - DM_in|         :     0.0000726421
max |H_out - H_in|      (eV) :     0.0005066788
SCF cycle converged after 9 iterations

Using DM_out to compute the final energy and forces
No. of atoms with KB's overlaping orbs in proc 0. Max # of overlaps:      36     244

siesta: E_KS(eV) =            -4084.5968

siesta: Atomic forces (eV/Ang):
----------------------------------------
   Tot    0.000162    0.018094   -0.000432
----------------------------------------
   Max    1.007195
   Res    0.386689    sqrt( Sum f_i^2 / 3N )
----------------------------------------
   Max    1.007195    constrained

Stress-tensor-Voigt (kbar):       -4.40       -4.37        0.04       -0.02        0.00       -0.07
(Free)E + p*V (eV/cell)    -4070.0558
Target enthalpy (eV/cell)    -4084.5968

                     ====================================
                        Begin Broyden opt. move =      3
                     ====================================

outcoor: Atomic coordinates (Ang):                          
   10.74101782   10.49159268   10.07541502   1       1  C.gga
   10.74188257    9.08143078   10.08001168   1       2  C.gga
    9.51576887   11.19977126   10.12536722   1       3  C.gga
   11.98476797   11.19747780   10.01271922   1       4  C.gga
    9.51584865    8.37394392   10.14855537   1       5  C.gga
    8.28371169   10.49856163   10.16648915   1       6  C.gga
   11.98776677    8.37811564   10.01255267   1       7  C.gga
    9.54450442   12.61732758   10.03001474   1       8  C.gga
   13.21086372   10.47812547    9.99957098   1       9  C.gga
   11.98531164   12.61980341   10.00142805   1      10  C.gga
   13.21157852    9.10123331    9.99878769   1      11  C.gga
    8.28491054    9.07839280   10.17807241   1      12  C.gga
   10.79129843   13.31110186    9.99953827   1      13  C.gga
    9.54450304    6.96066269   10.03874073   1      14  C.gga
    7.07380016   11.21544604   10.03844996   1      15  C.gga
   11.98648707    6.95752724   10.00167158   1      16  C.gga
    8.31145935   13.31639611   10.00290736   1      17  C.gga
    7.07270965    8.36274791   10.04175089   1      18  C.gga
   10.79188784    6.26658141    9.99998199   1      19  C.gga
    7.12022161   12.63428022    9.99897216   1      20  C.gga
    8.31032619    6.26145461   10.00341350   1      21  C.gga
    5.86113595   10.47775189   10.00019301   1      22  C.gga
    7.12017754    6.94534294    9.99972156   1      23  C.gga
    5.86228414    9.10171519    9.99942251   1      24  C.gga
   14.16613227   11.03230805    9.99766373   2      25  H.gga
   12.93963070   13.16352854    9.99849915   2      26  H.gga
   14.16711549    8.54766011    9.99752264   2      27  H.gga
   10.78992825   14.40449469    9.99634225   2      28  H.gga
   12.94105245    6.41439108    9.99846559   2      29  H.gga
    8.32602616   14.41474880    9.99536598   2      30  H.gga
   10.78998443    5.17486464    9.99555447   2      31  H.gga
    6.16729722   13.17440128    9.99257385   2      32  H.gga
    8.32581306    5.16463151    9.99400588   2      33  H.gga
    4.92553527   11.03440706    9.99504449   2      34  H.gga
    6.16671388    6.40483641    9.99205214   2      35  H.gga
    4.92543411    8.54553357    9.99452834   2      36  H.gga

outcell: Unit cell vectors (Ang):
       20.000000    0.000000    0.000000
        0.000000   20.000000    0.000000
        0.000000    0.000000   20.000000

outcell: Cell vector modules (Ang)   :   20.000000   20.000000   20.000000
outcell: Cell angles (23,13,12) (deg):     90.0000     90.0000     90.0000
outcell: Cell volume (Ang**3)        :   8000.0000
<dSpData1D:S at geom step 3
  <sparsity:sparsity for geom step 3
    nrows_g=372 nrows=372 sparsity=.9054 nnzs=125292, refcount: 7>
  <dData1D:(new from dSpData1D) n=125292, refcount: 1>
refcount: 1>
new_DM -- step:     4
Re-using DM from previous geometries...
Number of DMs in history: 1
 DM extrapolation coefficients: 
1   1.00000
New DM after history re-use:
<dSpData2D:SpM extrapolated using coords
  <sparsity:sparsity for geom step 3
    nrows_g=372 nrows=372 sparsity=.9054 nnzs=125292, refcount: 8>
  <dData2D:(temp array for extrapolation) n=125292 m=1, refcount: 1>
refcount: 1>
No. of atoms with KB's overlaping orbs in proc 0. Max # of overlaps:      36     244
New grid distribution:   1
           1       1:  108    1:  108    1:  108

InitMesh: MESH =   216 x   216 x   216 =    10077696
InitMesh: (bp) =   108 x   108 x   108 =     1259712
InitMesh: Mesh cutoff (required, used) =   300.000   322.366 Ry
ExtMesh (bp) on 0 =   188 x   188 x   188 =     6644672
PhiOnMesh: Number of (b)points on node 0 =              1259712
PhiOnMesh: nlist on node 0 =              8485809

        iscf     Eharris(eV)        E_KS(eV)     FreeEng(eV)     dDmax    Ef(eV) dHmax(eV)
   scf:    1    -4085.160949    -4084.736652    -4084.736652  0.013894 -3.706640  0.532377
   scf:    2    -4084.035786    -4084.536388    -4084.536388  0.016167 -3.696280  1.602402
   scf:    3    -4084.816536    -4084.762250    -4084.762250  0.012134 -3.690317  0.038054
   scf:    4    -4084.762454    -4084.762361    -4084.762361  0.000366 -3.690309  0.022595
   scf:    5    -4084.762435    -4084.762405    -4084.762405  0.000420 -3.690650  0.005591
   scf:    6    -4084.762409    -4084.762407    -4084.762407  0.000106 -3.690827  0.001951
   scf:    7    -4084.762408    -4084.762408    -4084.762408  0.000056 -3.690909  0.000597

SCF Convergence by DM+H criterion
max |DM_out - DM_in|         :     0.0000559875
max |H_out - H_in|      (eV) :     0.0005968010
SCF cycle converged after 7 iterations

Using DM_out to compute the final energy and forces
No. of atoms with KB's overlaping orbs in proc 0. Max # of overlaps:      36     244

siesta: E_KS(eV) =            -4084.7624

siesta: Atomic forces (eV/Ang):
----------------------------------------
   Tot   -0.001109    0.029114   -0.001485
----------------------------------------
   Max    0.649756
   Res    0.251456    sqrt( Sum f_i^2 / 3N )
----------------------------------------
   Max    0.649756    constrained

Stress-tensor-Voigt (kbar):       -3.73       -3.94        0.03        0.01       -0.00       -0.05
(Free)E + p*V (eV/cell)    -4072.0467
Target enthalpy (eV/cell)    -4084.7624

                     ====================================
                        Begin Broyden opt. move =      4
                     ====================================

outcoor: Atomic coordinates (Ang):                          
   10.75669030   10.49851229   10.07830120   1       1  C.gga
   10.75721514    9.07601363   10.08441022   1       2  C.gga
    9.52531504   11.20833477   10.12009618   1       3  C.gga
   11.99023486   11.20155578   10.01514128   1       4  C.gga
    9.52599767    8.36816357   10.13893213   1       5  C.gga
    8.29133629   10.49978977   10.15792647   1       6  C.gga
   11.99137283    8.37576847   10.01574660   1       7  C.gga
    9.54556462   12.62448854   10.03527472   1       8  C.gga
   13.21789854   10.47920057    9.99937997   1       9  C.gga
   11.98448313   12.62464580   10.00166203   1      10  C.gga
   13.21882451    9.09949854    9.99841582   1      11  C.gga
    8.29059250    9.07698998   10.16801470   1      12  C.gga
   10.79150672   13.31292404   10.00055365   1      13  C.gga
    9.54522236    6.95119505   10.04490238   1      14  C.gga
    7.07082229   11.21567427   10.04650002   1      15  C.gga
   11.98594104    6.95169043   10.00194297   1      16  C.gga
    8.30881071   13.32619428   10.00423604   1      17  C.gga
    7.07177209    8.36352019   10.05084137   1      18  C.gga
   10.79199338    6.26573989   10.00162573   1      19  C.gga
    7.10822509   12.63871563   10.00025534   1      20  C.gga
    8.30849450    6.25276521   10.00541475   1      21  C.gga
    5.85524261   10.48122973   10.00195969   1      22  C.gga
    7.10737546    6.93959858   10.00128270   1      23  C.gga
    5.85479812    9.09805152   10.00127881   1      24  C.gga
   14.16789754   11.03539183    9.99690777   2      25  H.gga
   12.94630134   13.16586332    9.99762614   2      26  H.gga
   14.16921955    8.54461852    9.99659016   2      27  H.gga
   10.78873994   14.41555238    9.99474973   2      28  H.gga
   12.94792523    6.41149283    9.99744644   2      29  H.gga
    8.32534895   14.42431531    9.99388374   2      30  H.gga
   10.78884515    5.16245201    9.99369330   2      31  H.gga
    6.15652665   13.18279726    9.99017752   2      32  H.gga
    8.32490248    5.15389094    9.99219638   2      33  H.gga
    4.90840996   11.04157273    9.99263316   2      34  H.gga
    6.15619618    6.39652918    9.98942524   2      35  H.gga
    4.90882532    8.53853561    9.99190919   2      36  H.gga

outcell: Unit cell vectors (Ang):
       20.000000    0.000000    0.000000
        0.000000   20.000000    0.000000
        0.000000    0.000000   20.000000

outcell: Cell vector modules (Ang)   :   20.000000   20.000000   20.000000
outcell: Cell angles (23,13,12) (deg):     90.0000     90.0000     90.0000
outcell: Cell volume (Ang**3)        :   8000.0000
<dSpData1D:S at geom step 4
  <sparsity:sparsity for geom step 4
    nrows_g=372 nrows=372 sparsity=.9050 nnzs=125244, refcount: 7>
  <dData1D:(new from dSpData1D) n=125244, refcount: 1>
refcount: 1>
new_DM -- step:     5
Re-using DM from previous geometries...
Number of DMs in history: 1
 DM extrapolation coefficients: 
1   1.00000
New DM after history re-use:
<dSpData2D:SpM extrapolated using coords
  <sparsity:sparsity for geom step 4
    nrows_g=372 nrows=372 sparsity=.9050 nnzs=125244, refcount: 8>
  <dData2D:(temp array for extrapolation) n=125244 m=1, refcount: 1>
refcount: 1>
No. of atoms with KB's overlaping orbs in proc 0. Max # of overlaps:      36     243
New grid distribution:   1
           1       1:  108    1:  108    1:  108

InitMesh: MESH =   216 x   216 x   216 =    10077696
InitMesh: (bp) =   108 x   108 x   108 =     1259712
InitMesh: Mesh cutoff (required, used) =   300.000   322.366 Ry
ExtMesh (bp) on 0 =   188 x   188 x   188 =     6644672
PhiOnMesh: Number of (b)points on node 0 =              1259712
PhiOnMesh: nlist on node 0 =              8485985

        iscf     Eharris(eV)        E_KS(eV)     FreeEng(eV)     dDmax    Ef(eV) dHmax(eV)
   scf:    1    -4085.325400    -4084.860622    -4084.860622  0.016012 -3.679594  0.575315
   scf:    2    -4084.082162    -4084.637055    -4084.637055  0.015405 -3.773192  1.681632
   scf:    3    -4084.947324    -4084.887499    -4084.887499  0.011670 -3.692926  0.030540
   scf:    4    -4084.887634    -4084.887573    -4084.887573  0.000338 -3.695302  0.017698
   scf:    5    -4084.887625    -4084.887603    -4084.887603  0.000381 -3.697557  0.004092
   scf:    6    -4084.887607    -4084.887605    -4084.887605  0.000088 -3.697841  0.001919
   scf:    7    -4084.887606    -4084.887606    -4084.887606  0.000064 -3.697983  0.000449

SCF Convergence by DM+H criterion
max |DM_out - DM_in|         :     0.0000644862
max |H_out - H_in|      (eV) :     0.0004486502
SCF cycle converged after 7 iterations

Using DM_out to compute the final energy and forces
No. of atoms with KB's overlaping orbs in proc 0. Max # of overlaps:      36     243

siesta: E_KS(eV) =            -4084.8876

siesta: Atomic forces (eV/Ang):
----------------------------------------
   Tot    0.005729    0.028735   -0.001008
----------------------------------------
   Max    0.482948
   Res    0.180216    sqrt( Sum f_i^2 / 3N )
----------------------------------------
   Max    0.482948    constrained

Stress-tensor-Voigt (kbar):       -3.09       -3.11        0.02       -0.03       -0.00       -0.02
(Free)E + p*V (eV/cell)    -4074.5859
Target enthalpy (eV/cell)    -4084.8876

                     ====================================
                        Begin Broyden opt. move =      5
                     ====================================

outcoor: Atomic coordinates (Ang):                          
   10.76949427   10.50026689   10.08225218   1       1  C.gga
   10.76961926    9.07707032   10.08915076   1       2  C.gga
    9.53577341   11.21397596   10.11350065   1       3  C.gga
   12.00346060   11.20980483   10.01879465   1       4  C.gga
    9.53537288    8.36220225   10.12725427   1       5  C.gga
    8.29850012   10.50290884   10.14575336   1       6  C.gga
   12.00423335    8.36715156   10.02049593   1       7  C.gga
    9.54354537   12.63724457   10.04117143   1       8  C.gga
   13.22566796   10.47836964    9.99935522   1       9  C.gga
   11.98923272   12.63092245   10.00205234   1      10  C.gga
   13.22577413    9.09986773    9.99834539   1      11  C.gga
    8.29951134    9.07534627   10.15383580   1      12  C.gga
   10.79170984   13.32439106   10.00266213   1      13  C.gga
    9.54395306    6.94075039   10.05155863   1      14  C.gga
    7.06733307   11.21819065   10.05586891   1      15  C.gga
   11.99072918    6.94695109   10.00251648   1      16  C.gga
    8.30035631   13.33282673   10.00664353   1      17  C.gga
    7.06594636    8.35978492   10.06086254   1      18  C.gga
   10.79207740    6.25253327   10.00469263   1      19  C.gga
    7.10115740   12.64614975   10.00353127   1      20  C.gga
    8.29935752    6.24452365   10.00881338   1      21  C.gga
    5.84270052   10.48263597   10.00555898   1      22  C.gga
    7.10121117    6.93293251   10.00515857   1      23  C.gga
    5.84369804    9.09668197   10.00534575   1      24  C.gga
   14.17404417   11.04104721    9.99561254   2      25  H.gga
   12.95339246   13.16908754    9.99609369   2      26  H.gga
   14.17577290    8.53882508    9.99501578   2      27  H.gga
   10.78747538   14.42691202    9.99245776   2      28  H.gga
   12.95523530    6.40757948    9.99562804   2      29  H.gga
    8.32397419   14.43874495    9.99153202   2      30  H.gga
   10.78768255    5.15074032    9.99109977   2      31  H.gga
    6.14118419   13.19409070    9.98663230   2      32  H.gga
    8.32328192    5.13937634    9.98945694   2      33  H.gga
    4.89111429   11.04810151    9.98901586   2      34  H.gga
    6.14037579    6.38484929    9.98553421   2      35  H.gga
    4.89105241    8.53155917    9.98803579   2      36  H.gga

outcell: Unit cell vectors (Ang):
       20.000000    0.000000    0.000000
        0.000000   20.000000    0.000000
        0.000000    0.000000   20.000000

outcell: Cell vector modules (Ang)   :   20.000000   20.000000   20.000000
outcell: Cell angles (23,13,12) (deg):     90.0000     90.0000     90.0000
outcell: Cell volume (Ang**3)        :   8000.0000
<dSpData1D:S at geom step 5
  <sparsity:sparsity for geom step 5
    nrows_g=372 nrows=372 sparsity=.9040 nnzs=125100, refcount: 7>
  <dData1D:(new from dSpData1D) n=125100, refcount: 1>
refcount: 1>
new_DM -- step:     6
Re-using DM from previous geometries...
Number of DMs in history: 1
 DM extrapolation coefficients: 
1   1.00000
New DM after history re-use:
<dSpData2D:SpM extrapolated using coords
  <sparsity:sparsity for geom step 5
    nrows_g=372 nrows=372 sparsity=.9040 nnzs=125100, refcount: 8>
  <dData2D:(temp array for extrapolation) n=125100 m=1, refcount: 1>
refcount: 1>
No. of atoms with KB's overlaping orbs in proc 0. Max # of overlaps:      36     242
New grid distribution:   1
           1       1:  108    1:  108    1:  108

InitMesh: MESH =   216 x   216 x   216 =    10077696
InitMesh: (bp) =   108 x   108 x   108 =     1259712
InitMesh: Mesh cutoff (required, used) =   300.000   322.366 Ry
ExtMesh (bp) on 0 =   188 x   188 x   188 =     6644672
PhiOnMesh: Number of (b)points on node 0 =              1259712
PhiOnMesh: nlist on node 0 =              8486742

        iscf     Eharris(eV)        E_KS(eV)     FreeEng(eV)     dDmax    Ef(eV) dHmax(eV)
   scf:    1    -4085.591205    -4084.968892    -4084.968892  0.015648 -3.696801  0.522984
   scf:    2    -4084.291067    -4084.773497    -4084.773497  0.016110 -3.753438  1.488958
   scf:    3    -4085.042942    -4084.991362    -4084.991362  0.011834 -3.703911  0.028806
   scf:    4    -4084.991479    -4084.991424    -4084.991424  0.000361 -3.707186  0.017251
   scf:    5    -4084.991474    -4084.991453    -4084.991453  0.000406 -3.710633  0.003714
   scf:    6    -4084.991456    -4084.991455    -4084.991455  0.000073 -3.710856  0.001849
   scf:    7    -4084.991456    -4084.991456    -4084.991456  0.000070 -3.710988  0.000477

SCF Convergence by DM+H criterion
max |DM_out - DM_in|         :     0.0000699904
max |H_out - H_in|      (eV) :     0.0004766619
SCF cycle converged after 7 iterations

Using DM_out to compute the final energy and forces
No. of atoms with KB's overlaping orbs in proc 0. Max # of overlaps:      36     242

siesta: E_KS(eV) =            -4084.9915

siesta: Atomic forces (eV/Ang):
----------------------------------------
   Tot    0.010130    0.032098   -0.001339
----------------------------------------
   Max    0.384063
   Res    0.130675    sqrt( Sum f_i^2 / 3N )
----------------------------------------
   Max    0.384063    constrained

Stress-tensor-Voigt (kbar):       -2.10       -2.29        0.01        0.01        0.00        0.00
(Free)E + p*V (eV/cell)    -4077.7054
Target enthalpy (eV/cell)    -4084.9915

                     ====================================
                        Begin Broyden opt. move =      6
                     ====================================

outcoor: Atomic coordinates (Ang):                          
   10.77470663   10.50224086   10.08406247   1       1  C.gga
   10.77476972    9.07540154   10.09064218   1       2  C.gga
    9.53949327   11.21728392   10.11004826   1       3  C.gga
   12.00946292   11.21210205   10.02132616   1       4  C.gga
    9.53974324    8.36038998   10.12164359   1       5  C.gga
    8.30018784   10.50485171   10.13872716   1       6  C.gga
   12.00968182    8.36572920   10.02368161   1       7  C.gga
    9.54307514   12.64191623   10.04379135   1       8  C.gga
   13.23180232   10.48029582    9.99959039   1       9  C.gga
   11.99173596   12.63768267   10.00245582   1      10  C.gga
   13.23218995    9.09770152    9.99871267   1      11  C.gga
    8.29974377    9.07320764   10.14548556   1      12  C.gga
   10.79368759   13.33135381   10.00438708   1      13  C.gga
    9.54304134    6.93500235   10.05400226   1      14  C.gga
    7.06452202   11.21916117   10.05968802   1      15  C.gga
   11.99266965    6.93932700   10.00312758   1      16  C.gga
    8.29681832   13.34013583   10.00837249   1      17  C.gga
    7.06456235    8.35949506   10.06493331   1      18  C.gga
   10.79455315    6.24639877   10.00703605   1      19  C.gga
    7.09449465   12.65015317   10.00635173   1      20  C.gga
    8.29662673    6.23790811   10.01121017   1      21  C.gga
    5.83615193   10.48457086   10.00853001   1      22  C.gga
    7.09398264    6.92813434   10.00833420   1      23  C.gga
    5.83607549    9.09465418   10.00864124   1      24  C.gga
   14.17859042   11.04378683    9.99463261   2      25  H.gga
   12.95709924   13.17165220    9.99491660   2      26  H.gga
   14.18016152    8.53607217    9.99386665   2      27  H.gga
   10.78722028   14.43352810    9.99107955   2      28  H.gga
   12.95865276    6.40506855    9.99423314   2      29  H.gga
    8.32231992   14.44445736    9.99000656   2      30  H.gga
   10.78744790    5.14362109    9.98960740   2      31  H.gga
    6.13514922   13.19889857    9.98455457   2      32  H.gga
    8.32147819    5.13328890    9.98777291   2      33  H.gga
    4.88428396   11.04993607    9.98680336   2      34  H.gga
    6.13457626    6.38010048    9.98326537   2      35  H.gga
    4.88443198    8.52971584    9.98573573   2      36  H.gga

outcell: Unit cell vectors (Ang):
       20.000000    0.000000    0.000000
        0.000000   20.000000    0.000000
        0.000000    0.000000   20.000000

outcell: Cell vector modules (Ang)   :   20.000000   20.000000   20.000000
outcell: Cell angles (23,13,12) (deg):     90.0000     90.0000     90.0000
outcell: Cell volume (Ang**3)        :   8000.0000
<dSpData1D:S at geom step 6
  <sparsity:sparsity for geom step 6
    nrows_g=372 nrows=372 sparsity=.9040 nnzs=125100, refcount: 7>
  <dData1D:(new from dSpData1D) n=125100, refcount: 1>
refcount: 1>
new_DM -- step:     7
Re-using DM from previous geometries...
Number of DMs in history: 1
 DM extrapolation coefficients: 
1   1.00000
New DM after history re-use:
<dSpData2D:SpM extrapolated using coords
  <sparsity:sparsity for geom step 6
    nrows_g=372 nrows=372 sparsity=.9040 nnzs=125100, refcount: 8>
  <dData2D:(temp array for extrapolation) n=125100 m=1, refcount: 1>
refcount: 1>
No. of atoms with KB's overlaping orbs in proc 0. Max # of overlaps:      36     242
New grid distribution:   1
           1       1:  108    1:  108    1:  108

InitMesh: MESH =   216 x   216 x   216 =    10077696
InitMesh: (bp) =   108 x   108 x   108 =     1259712
InitMesh: Mesh cutoff (required, used) =   300.000   322.366 Ry
ExtMesh (bp) on 0 =   188 x   188 x   188 =     6644672
PhiOnMesh: Number of (b)points on node 0 =              1259712
PhiOnMesh: nlist on node 0 =              8487235

        iscf     Eharris(eV)        E_KS(eV)     FreeEng(eV)     dDmax    Ef(eV) dHmax(eV)
   scf:    1    -4085.401455    -4085.029011    -4085.029011  0.009205 -3.737768  0.180189
   scf:    2    -4084.959543    -4085.009254    -4085.009254  0.004799 -3.672408  0.555385
   scf:    3    -4085.037108    -4085.031665    -4085.031665  0.003576 -3.720035  0.009850
   scf:    4    -4085.031693    -4085.031680    -4085.031680  0.000159 -3.720222  0.006274
   scf:    5    -4085.031694    -4085.031688    -4085.031688  0.000199 -3.720743  0.002015
   scf:    6    -4085.031689    -4085.031689    -4085.031689  0.000092 -3.721102  0.000520

SCF Convergence by DM+H criterion
max |DM_out - DM_in|         :     0.0000921178
max |H_out - H_in|      (eV) :     0.0005198168
SCF cycle converged after 6 iterations

Using DM_out to compute the final energy and forces
No. of atoms with KB's overlaping orbs in proc 0. Max # of overlaps:      36     242

siesta: E_KS(eV) =            -4085.0317

siesta: Atomic forces (eV/Ang):
----------------------------------------
   Tot   -0.000434    0.024997   -0.001184
----------------------------------------
   Max    0.217807
   Res    0.095333    sqrt( Sum f_i^2 / 3N )
----------------------------------------
   Max    0.217807    constrained

Stress-tensor-Voigt (kbar):       -1.67       -1.72        0.01       -0.02        0.00        0.01
(Free)E + p*V (eV/cell)    -4079.4034
Target enthalpy (eV/cell)    -4085.0317

                     ====================================
                        Begin Broyden opt. move =      7
                     ====================================

outcoor: Atomic coordinates (Ang):                          
   10.77894803   10.50387621   10.08572148   1       1  C.gga
   10.77939413    9.07440823   10.09067010   1       2  C.gga
    9.53997174   11.22054660   10.10555122   1       3  C.gga
   12.01590705   11.21703575   10.02585729   1       4  C.gga
    9.53957414    8.35695970   10.11501354   1       5  C.gga
    8.29860900   10.50487605   10.12826612   1       6  C.gga
   12.01636382    8.36027300   10.02893115   1       7  C.gga
    9.54268183   12.65069738   10.04605231   1       8  C.gga
   13.24210693   10.48111807   10.00060530   1       9  C.gga
   11.99469407   12.64657687   10.00373414   1      10  C.gga
   13.24236999    9.09702415   10.00026032   1      11  C.gga
    8.29913590    9.07350771   10.13322917   1      12  C.gga
   10.79677791   13.33976180   10.00788430   1      13  C.gga
    9.54339247    6.92737660   10.05526222   1      14  C.gga
    7.05812846   11.22304545   10.06220918   1      15  C.gga
   11.99606103    6.93131369   10.00501195   1      16  C.gga
    8.29234102   13.34694758   10.01183441   1      17  C.gga
    7.05730283    8.35523115   10.06701258   1      18  C.gga
   10.79665766    6.23718021   10.01141142   1      19  C.gga
    7.08772280   12.65569746   10.01223032   1      20  C.gga
    8.29187689    6.23090556   10.01558752   1      21  C.gga
    5.82919213   10.48255218   10.01457933   1      22  C.gga
    7.08788142    6.92270534   10.01492734   1      23  C.gga
    5.82945790    9.09646607   10.01537048   1      24  C.gga
   14.18885990   11.04800257    9.99260280   2      25  H.gga
   12.96365048   13.17831492    9.99249467   2      26  H.gga
   14.19014746    8.53157333    9.99160034   2      27  H.gga
   10.78772663   14.44521046    9.98895027   2      28  H.gga
   12.96435101    6.39881048    9.99139953   2      29  H.gga
    8.31819337   14.45272463    9.98734995   2      30  H.gga
   10.78805464    5.13242040    9.98747702   2      31  H.gga
    6.12820157   13.20443612    9.98148934   2      32  H.gga
    8.31728674    5.12526851    9.98505304   2      33  H.gga
    4.87736051   11.05075773    9.98333848   2      34  H.gga
    6.12758505    6.37436951    9.97994584   2      35  H.gga
    4.87727821    8.52860207    9.98227996   2      36  H.gga

outcell: Unit cell vectors (Ang):
       20.000000    0.000000    0.000000
        0.000000   20.000000    0.000000
        0.000000    0.000000   20.000000

outcell: Cell vector modules (Ang)   :   20.000000   20.000000   20.000000
outcell: Cell angles (23,13,12) (deg):     90.0000     90.0000     90.0000
outcell: Cell volume (Ang**3)        :   8000.0000
<dSpData1D:S at geom step 7
  <sparsity:sparsity for geom step 7
    nrows_g=372 nrows=372 sparsity=.9040 nnzs=125100, refcount: 7>
  <dData1D:(new from dSpData1D) n=125100, refcount: 1>
refcount: 1>
new_DM -- step:     8
Re-using DM from previous geometries...
Number of DMs in history: 1
 DM extrapolation coefficients: 
1   1.00000
New DM after history re-use:
<dSpData2D:SpM extrapolated using coords
  <sparsity:sparsity for geom step 7
    nrows_g=372 nrows=372 sparsity=.9040 nnzs=125100, refcount: 8>
  <dData2D:(temp array for extrapolation) n=125100 m=1, refcount: 1>
refcount: 1>
No. of atoms with KB's overlaping orbs in proc 0. Max # of overlaps:      36     242
New grid distribution:   1
           1       1:  108    1:  108    1:  108

InitMesh: MESH =   216 x   216 x   216 =    10077696
InitMesh: (bp) =   108 x   108 x   108 =     1259712
InitMesh: Mesh cutoff (required, used) =   300.000   322.366 Ry
ExtMesh (bp) on 0 =   188 x   188 x   188 =     6644672
PhiOnMesh: Number of (b)points on node 0 =              1259712
PhiOnMesh: nlist on node 0 =              8487129

        iscf     Eharris(eV)        E_KS(eV)     FreeEng(eV)     dDmax    Ef(eV) dHmax(eV)
   scf:    1    -4085.560278    -4085.069132    -4085.069132  0.011420 -3.743520  0.191831
   scf:    2    -4084.980805    -4085.044072    -4085.044072  0.006423 -3.674918  0.577289
   scf:    3    -4085.079556    -4085.072582    -4085.072582  0.004761 -3.728106  0.011566
   scf:    4    -4085.072623    -4085.072604    -4085.072604  0.000188 -3.729656  0.007243
   scf:    5    -4085.072624    -4085.072615    -4085.072615  0.000284 -3.731770  0.001132
   scf:    6    -4085.072616    -4085.072616    -4085.072616  0.000042 -3.731895  0.000592

SCF Convergence by DM+H criterion
max |DM_out - DM_in|         :     0.0000416073
max |H_out - H_in|      (eV) :     0.0005917221
SCF cycle converged after 6 iterations

Using DM_out to compute the final energy and forces
No. of atoms with KB's overlaping orbs in proc 0. Max # of overlaps:      36     242

siesta: E_KS(eV) =            -4085.0726

siesta: Atomic forces (eV/Ang):
----------------------------------------
   Tot    0.000277    0.018388   -0.001292
----------------------------------------
   Max    0.218866
   Res    0.078255    sqrt( Sum f_i^2 / 3N )
----------------------------------------
   Max    0.218866    constrained

Stress-tensor-Voigt (kbar):       -0.98       -1.11        0.01        0.02        0.00        0.01
(Free)E + p*V (eV/cell)    -4081.6007
Target enthalpy (eV/cell)    -4085.0726

                     ====================================
                        Begin Broyden opt. move =      8
                     ====================================

outcoor: Atomic coordinates (Ang):                          
   10.78243480   10.50650251   10.08691054   1       1  C.gga
   10.78268449    9.07168508   10.09006863   1       2  C.gga
    9.53955666   11.22417624   10.10057969   1       3  C.gga
   12.02348689   11.22209593   10.03104060   1       4  C.gga
    9.53989702    8.35409175   10.10784521   1       5  C.gga
    8.29524850   10.50764974   10.11665934   1       6  C.gga
   12.02420440    8.35557765   10.03464866   1       7  C.gga
    9.54191847   12.65897946   10.04826198   1       8  C.gga
   13.25177493   10.48382610   10.00224340   1       9  C.gga
   12.00025470   12.65377674   10.00571965   1      10  C.gga
   13.25205928    9.09444729   10.00256954   1      11  C.gga
    8.29518220    9.07074323   10.11984763   1      12  C.gga
   10.79788938   13.35089164   10.01182904   1      13  C.gga
    9.54228921    6.91905475   10.05617913   1      14  C.gga
    7.05151480   11.22607163   10.06403537   1      15  C.gga
   12.00033513    6.92374741   10.00777952   1      16  C.gga
    8.28831327   13.35356064   10.01594730   1      17  C.gga
    7.05116920    8.35226895   10.06824954   1      18  C.gga
   10.79833709    6.22685691   10.01617369   1      19  C.gga
    7.08189499   12.66100251   10.01891821   1      20  C.gga
    8.28843785    6.22451388   10.02059137   1      21  C.gga
    5.82271129   10.48524415   10.02154224   1      22  C.gga
    7.08185636    6.91727509   10.02233782   1      23  C.gga
    5.82269120    9.09353160   10.02294848   1      24  C.gga
   14.20115409   11.05217153    9.99004696   2      25  H.gga
   12.97022943   13.18665277    9.98950138   2      26  H.gga
   14.20206658    8.52708288    9.98884544   2      27  H.gga
   10.78884293   14.45725385    9.98667893   2      28  H.gga
   12.97037497    6.39081480    9.98796231   2      29  H.gga
    8.31263567   14.46133073    9.98434621   2      30  H.gga
   10.78916954    5.12044901    9.98530163   2      31  H.gga
    6.12082473   13.21044520    9.97835910   2      32  H.gga
    8.31169163    5.11691656    9.98209917   2      33  H.gga
    4.87090657   11.05029731    9.97968720   2      34  H.gga
    6.12052541    6.36829289    9.97661377   2      35  H.gga
    4.87072023    8.52881227    9.97874703   2      36  H.gga

outcell: Unit cell vectors (Ang):
       20.000000    0.000000    0.000000
        0.000000   20.000000    0.000000
        0.000000    0.000000   20.000000

outcell: Cell vector modules (Ang)   :   20.000000   20.000000   20.000000
outcell: Cell angles (23,13,12) (deg):     90.0000     90.0000     90.0000
outcell: Cell volume (Ang**3)        :   8000.0000
<dSpData1D:S at geom step 8
  <sparsity:sparsity for geom step 8
    nrows_g=372 nrows=372 sparsity=.9040 nnzs=125100, refcount: 7>
  <dData1D:(new from dSpData1D) n=125100, refcount: 1>
refcount: 1>
new_DM -- step:     9
Re-using DM from previous geometries...
Number of DMs in history: 1
 DM extrapolation coefficients: 
1   1.00000
New DM after history re-use:
<dSpData2D:SpM extrapolated using coords
  <sparsity:sparsity for geom step 8
    nrows_g=372 nrows=372 sparsity=.9040 nnzs=125100, refcount: 8>
  <dData2D:(temp array for extrapolation) n=125100 m=1, refcount: 1>
refcount: 1>
No. of atoms with KB's overlaping orbs in proc 0. Max # of overlaps:      36     242
New grid distribution:   1
           1       1:  108    1:  108    1:  108

InitMesh: MESH =   216 x   216 x   216 =    10077696
InitMesh: (bp) =   108 x   108 x   108 =     1259712
InitMesh: Mesh cutoff (required, used) =   300.000   322.366 Ry
ExtMesh (bp) on 0 =   188 x   188 x   188 =     6644672
PhiOnMesh: Number of (b)points on node 0 =              1259712
PhiOnMesh: nlist on node 0 =              8487168

        iscf     Eharris(eV)        E_KS(eV)     FreeEng(eV)     dDmax    Ef(eV) dHmax(eV)
   scf:    1    -4085.601116    -4085.093823    -4085.093823  0.011402 -3.756300  0.213191
   scf:    2    -4084.963707    -4085.056486    -4085.056486  0.006887 -3.696002  0.706410
   scf:    3    -4085.108374    -4085.098363    -4085.098363  0.005134 -3.741795  0.018075
   scf:    4    -4085.098411    -4085.098388    -4085.098388  0.000208 -3.743259  0.010774
   scf:    5    -4085.098415    -4085.098403    -4085.098403  0.000328 -3.745330  0.001303
   scf:    6    -4085.098405    -4085.098404    -4085.098404  0.000048 -3.745482  0.000678

SCF Convergence by DM+H criterion
max |DM_out - DM_in|         :     0.0000483787
max |H_out - H_in|      (eV) :     0.0006778214
SCF cycle converged after 6 iterations

Using DM_out to compute the final energy and forces
No. of atoms with KB's overlaping orbs in proc 0. Max # of overlaps:      36     242

siesta: E_KS(eV) =            -4085.0984

siesta: Atomic forces (eV/Ang):
----------------------------------------
   Tot   -0.005086    0.003941   -0.000874
----------------------------------------
   Max    0.107502
   Res    0.039504    sqrt( Sum f_i^2 / 3N )
----------------------------------------
   Max    0.107502    constrained

Stress-tensor-Voigt (kbar):       -0.33       -0.35        0.01       -0.01        0.00        0.00
(Free)E + p*V (eV/cell)    -4083.9628
Target enthalpy (eV/cell)    -4085.0984

                     ====================================
                        Begin Broyden opt. move =      9
                     ====================================

outcoor: Atomic coordinates (Ang):                          
   10.78219404   10.50690610   10.08621441   1       1  C.gga
   10.78284403    9.07113942   10.08897919   1       2  C.gga
    9.53902719   11.22575332   10.09848880   1       3  C.gga
   12.02589986   11.22273969   10.03321100   1       4  C.gga
    9.53918907    8.35252334   10.10496318   1       5  C.gga
    8.29269541   10.50810744   10.11235193   1       6  C.gga
   12.02608963    8.35525387   10.03654102   1       7  C.gga
    9.54185915   12.66033870   10.04888530   1       8  C.gga
   13.25418925   10.48410855   10.00383249   1       9  C.gga
   12.00106440   12.65631711   10.00754243   1      10  C.gga
   13.25460006    9.09423044   10.00443962   1      11  C.gga
    8.29257177    9.07018826   10.11531968   1      12  C.gga
   10.79896394   13.35312350   10.01326182   1      13  C.gga
    9.54206710    6.91742829   10.05623492   1      14  C.gga
    7.05038219   11.22740662   10.06349967   1      15  C.gga
   12.00154296    6.92143466   10.01000840   1      16  C.gga
    8.28732638   13.35562292   10.01780853   1      17  C.gga
    7.05052511    8.35102489   10.06732493   1      18  C.gga
   10.79893038    6.22457856   10.01756652   1      19  C.gga
    7.08129998   12.66244632   10.02121546   1      20  C.gga
    8.28740051    6.22273425   10.02244807   1      21  C.gga
    5.82208663   10.48452652   10.02421922   1      22  C.gga
    7.08124691    6.91568891   10.02474511   1      23  C.gga
    5.82189078    9.09415192   10.02555412   1      24  C.gga
   14.20607051   11.05225090    9.98855414   2      25  H.gga
   12.97159993   13.19124877    9.98786766   2      26  H.gga
   14.20680782    8.52685245    9.98742481   2      27  H.gga
   10.79007853   14.46124333    9.98602142   2      28  H.gga
   12.97152838    6.38632793    9.98624148   2      29  H.gga
    8.30880666   14.46294934    9.98322845   2      30  H.gga
   10.79037325    5.11670034    9.98488577   2      31  H.gga
    6.11939181   13.21225857    9.97787244   2      32  H.gga
    8.30798423    5.11541976    9.98124985   2      33  H.gga
    4.86873091   11.04909489    9.97878073   2      34  H.gga
    6.11932952    6.36646159    9.97621635   2      35  H.gga
    4.86856632    8.52992659    9.97807737   2      36  H.gga

outcell: Unit cell vectors (Ang):
       20.000000    0.000000    0.000000
        0.000000   20.000000    0.000000
        0.000000    0.000000   20.000000

outcell: Cell vector modules (Ang)   :   20.000000   20.000000   20.000000
outcell: Cell angles (23,13,12) (deg):     90.0000     90.0000     90.0000
outcell: Cell volume (Ang**3)        :   8000.0000
<dSpData1D:S at geom step 9
  <sparsity:sparsity for geom step 9
    nrows_g=372 nrows=372 sparsity=.9040 nnzs=125100, refcount: 7>
  <dData1D:(new from dSpData1D) n=125100, refcount: 1>
refcount: 1>
new_DM -- step:    10
Re-using DM from previous geometries...
Number of DMs in history: 1
 DM extrapolation coefficients: 
1   1.00000
New DM after history re-use:
<dSpData2D:SpM extrapolated using coords
  <sparsity:sparsity for geom step 9
    nrows_g=372 nrows=372 sparsity=.9040 nnzs=125100, refcount: 8>
  <dData2D:(temp array for extrapolation) n=125100 m=1, refcount: 1>
refcount: 1>
No. of atoms with KB's overlaping orbs in proc 0. Max # of overlaps:      36     242
New grid distribution:   1
           1       1:  108    1:  108    1:  108

InitMesh: MESH =   216 x   216 x   216 =    10077696
InitMesh: (bp) =   108 x   108 x   108 =     1259712
InitMesh: Mesh cutoff (required, used) =   300.000   322.366 Ry
ExtMesh (bp) on 0 =   188 x   188 x   188 =     6644672
PhiOnMesh: Number of (b)points on node 0 =              1259712
PhiOnMesh: nlist on node 0 =              8486885

        iscf     Eharris(eV)        E_KS(eV)     FreeEng(eV)     dDmax    Ef(eV) dHmax(eV)
   scf:    1    -4085.231580    -4085.102671    -4085.102671  0.003928 -3.748345  0.110749
   scf:    2    -4085.069565    -4085.093149    -4085.093149  0.003251 -3.747835  0.322805
   scf:    3    -4085.106318    -4085.103799    -4085.103799  0.002472 -3.748867  0.006006
   scf:    4    -4085.103806    -4085.103803    -4085.103803  0.000071 -3.749515  0.003458
   scf:    5    -4085.103806    -4085.103804    -4085.103804  0.000071 -3.750102  0.000877

SCF Convergence by DM+H criterion
max |DM_out - DM_in|         :     0.0000707415
max |H_out - H_in|      (eV) :     0.0008765355
SCF cycle converged after 5 iterations

Using DM_out to compute the final energy and forces
No. of atoms with KB's overlaping orbs in proc 0. Max # of overlaps:      36     242

siesta: E_KS(eV) =            -4085.1038

siesta: Atomic forces (eV/Ang):
----------------------------------------
   Tot   -0.005231    0.004789   -0.000454
----------------------------------------
   Max    0.087079
   Res    0.030867    sqrt( Sum f_i^2 / 3N )
----------------------------------------
   Max    0.087079    constrained

Stress-tensor-Voigt (kbar):       -0.16       -0.19        0.00        0.00        0.00       -0.00
(Free)E + p*V (eV/cell)    -4084.5311
Target enthalpy (eV/cell)    -4085.1038

                     ====================================
                        Begin Broyden opt. move =     10
                     ====================================

outcoor: Atomic coordinates (Ang):                          
   10.78306494   10.50723278   10.08564730   1       1  C.gga
   10.78315703    9.07099539   10.08834325   1       2  C.gga
    9.53830853   11.22602353   10.09744298   1       3  C.gga
   12.02546470   11.22307153   10.03418200   1       4  C.gga
    9.53851829    8.35194950   10.10356859   1       5  C.gga
    8.29252379   10.50844243   10.11053793   1       6  C.gga
   12.02611413    8.35478660   10.03733659   1       7  C.gga
    9.54197931   12.66094995   10.04920815   1       8  C.gga
   13.25585768   10.48414278   10.00472791   1       9  C.gga
   12.00208250   12.65699987   10.00848994   1      10  C.gga
   13.25601794    9.09422359   10.00538750   1      11  C.gga
    8.29274364    9.07002561   10.11346224   1      12  C.gga
   10.79898576   13.35422736   10.01381355   1      13  C.gga
    9.54214319    6.91717775   10.05633850   1      14  C.gga
    7.05015537   11.22752049   10.06325725   1      15  C.gga
   12.00208572    6.92084227   10.01106996   1      16  C.gga
    8.28693592   13.35583562   10.01856890   1      17  C.gga
    7.04986422    8.35077018   10.06691204   1      18  C.gga
   10.79929733    6.22361282   10.01802501   1      19  C.gga
    7.08096526   12.66349600   10.02187455   1      20  C.gga
    8.28681922    6.22225926   10.02310340   1      21  C.gga
    5.82149087   10.48498050   10.02506203   1      22  C.gga
    7.08104010    6.91487965   10.02537519   1      23  C.gga
    5.82161545    9.09364401   10.02631245   1      24  C.gga
   14.20737729   11.05148410    9.98783853   2      25  H.gga
   12.97131541   13.19322042    9.98712872   2      26  H.gga
   14.20808359    8.52752570    9.98679239   2      27  H.gga
   10.79080104   14.46200418    9.98584461   2      28  H.gga
   12.97133380    6.38433068    9.98552212   2      29  H.gga
    8.30684722   14.46358908    9.98283653   2      30  H.gga
   10.79105498    5.11593676    9.98486470   2      31  H.gga
    6.11940581   13.21280600    9.97796330   2      32  H.gga
    8.30609184    5.11490433    9.98104446   2      33  H.gga
    4.86818749   11.04807888    9.97867457   2      34  H.gga
    6.11935266    6.36585298    9.97639760   2      35  H.gga
    4.86797844    8.53086079    9.97810818   2      36  H.gga

outcell: Unit cell vectors (Ang):
       20.000000    0.000000    0.000000
        0.000000   20.000000    0.000000
        0.000000    0.000000   20.000000

outcell: Cell vector modules (Ang)   :   20.000000   20.000000   20.000000
outcell: Cell angles (23,13,12) (deg):     90.0000     90.0000     90.0000
outcell: Cell volume (Ang**3)        :   8000.0000
<dSpData1D:S at geom step 10
  <sparsity:sparsity for geom step 10
    nrows_g=372 nrows=372 sparsity=.9040 nnzs=125100, refcount: 7>
  <dData1D:(new from dSpData1D) n=125100, refcount: 1>
refcount: 1>
new_DM -- step:    11
Re-using DM from previous geometries...
Number of DMs in history: 1
 DM extrapolation coefficients: 
1   1.00000
New DM after history re-use:
<dSpData2D:SpM extrapolated using coords
  <sparsity:sparsity for geom step 10
    nrows_g=372 nrows=372 sparsity=.9040 nnzs=125100, refcount: 8>
  <dData2D:(temp array for extrapolation) n=125100 m=1, refcount: 1>
refcount: 1>
No. of atoms with KB's overlaping orbs in proc 0. Max # of overlaps:      36     242
New grid distribution:   1
           1       1:  108    1:  108    1:  108

InitMesh: MESH =   216 x   216 x   216 =    10077696
InitMesh: (bp) =   108 x   108 x   108 =     1259712
InitMesh: Mesh cutoff (required, used) =   300.000   322.366 Ry
ExtMesh (bp) on 0 =   188 x   188 x   188 =     6644672
PhiOnMesh: Number of (b)points on node 0 =              1259712
PhiOnMesh: nlist on node 0 =              8486963

        iscf     Eharris(eV)        E_KS(eV)     FreeEng(eV)     dDmax    Ef(eV) dHmax(eV)
   scf:    1    -4085.144513    -4085.105579    -4085.105579  0.001259 -3.755632  0.037583
   scf:    2    -4085.102633    -4085.104744    -4085.104744  0.001087 -3.740530  0.109033
   scf:    3    -4085.105926    -4085.105696    -4085.105696  0.000808 -3.751432  0.002044
   scf:    4    -4085.105698    -4085.105697    -4085.105697  0.000023 -3.751290  0.001157
   scf:    5    -4085.105698    -4085.105697    -4085.105697  0.000027 -3.751219  0.000352

SCF Convergence by DM+H criterion
max |DM_out - DM_in|         :     0.0000269827
max |H_out - H_in|      (eV) :     0.0003517994
SCF cycle converged after 5 iterations

Using DM_out to compute the final energy and forces
No. of atoms with KB's overlaping orbs in proc 0. Max # of overlaps:      36     242

siesta: E_KS(eV) =            -4085.1057

siesta: Atomic forces (eV/Ang):
----------------------------------------
   Tot   -0.006379    0.004040   -0.000593
----------------------------------------
   Max    0.078957
   Res    0.026511    sqrt( Sum f_i^2 / 3N )
----------------------------------------
   Max    0.078957    constrained

Stress-tensor-Voigt (kbar):       -0.12       -0.14        0.00       -0.00        0.00       -0.00
(Free)E + p*V (eV/cell)    -4084.6894
Target enthalpy (eV/cell)    -4085.1057

                     ====================================
                        Begin Broyden opt. move =     11
                     ====================================

outcoor: Atomic coordinates (Ang):                          
   10.78300967   10.50751749   10.08510006   1       1  C.gga
   10.78333365    9.07065050   10.08765969   1       2  C.gga
    9.53858378   11.22634914   10.09606106   1       3  C.gga
   12.02696377   11.22378121   10.03536225   1       4  C.gga
    9.53872781    8.35183482   10.10173298   1       5  C.gga
    8.29242519   10.50846953   10.10816718   1       6  C.gga
   12.02723288    8.35426778   10.03838929   1       7  C.gga
    9.54193770   12.66210729   10.04966813   1       8  C.gga
   13.25677029   10.48430983   10.00580585   1       9  C.gga
   12.00231617   12.65790674   10.00958880   1      10  C.gga
[...]
<dSpData1D:S at geom step 32
  <sparsity:sparsity for geom step 32
    nrows_g=372 nrows=372 sparsity=.9040 nnzs=125100, refcount: 7>
  <dData1D:(new from dSpData1D) n=125100, refcount: 1>
refcount: 1>
new_DM -- step:    33
Re-using DM from previous geometries...
Number of DMs in history: 1
 DM extrapolation coefficients: 
1   1.00000
New DM after history re-use:
<dSpData2D:SpM extrapolated using coords
  <sparsity:sparsity for geom step 32
    nrows_g=372 nrows=372 sparsity=.9040 nnzs=125100, refcount: 8>
  <dData2D:(temp array for extrapolation) n=125100 m=1, refcount: 1>
refcount: 1>
No. of atoms with KB's overlaping orbs in proc 0. Max # of overlaps:      36     242
New grid distribution:   1
           1       1:  108    1:  108    1:  108

InitMesh: MESH =   216 x   216 x   216 =    10077696
InitMesh: (bp) =   108 x   108 x   108 =     1259712
InitMesh: Mesh cutoff (required, used) =   300.000   322.366 Ry
ExtMesh (bp) on 0 =   188 x   188 x   188 =     6644672
PhiOnMesh: Number of (b)points on node 0 =              1259712
PhiOnMesh: nlist on node 0 =              8487020

        iscf     Eharris(eV)        E_KS(eV)     FreeEng(eV)     dDmax    Ef(eV) dHmax(eV)
   scf:    1    -4085.121975    -4085.120858    -4085.120858  0.000426 -3.751607  0.001958
   scf:    2    -4085.120842    -4085.120856    -4085.120856  0.000059 -3.751208  0.003364
   scf:    3    -4085.120864    -4085.120862    -4085.120862  0.000035 -3.751511  0.000210

SCF Convergence by DM+H criterion
max |DM_out - DM_in|         :     0.0000346774
max |H_out - H_in|      (eV) :     0.0002098226
SCF cycle converged after 3 iterations

Using DM_out to compute the final energy and forces
No. of atoms with KB's overlaping orbs in proc 0. Max # of overlaps:      36     242

siesta: E_KS(eV) =            -4085.1209

siesta: Atomic forces (eV/Ang):
----------------------------------------
   Tot   -0.002861    0.010684   -0.001705
----------------------------------------
   Max    0.012799
   Res    0.003911    sqrt( Sum f_i^2 / 3N )
----------------------------------------
   Max    0.012799    constrained

Stress-tensor-Voigt (kbar):       -0.02       -0.02        0.00        0.00        0.00        0.00
(Free)E + p*V (eV/cell)    -4085.0532
Target enthalpy (eV/cell)    -4085.1209

                     ====================================
                        Begin Broyden opt. move =     33
                     ====================================

outcoor: Atomic coordinates (Ang):                          
   10.78735153   10.50914277   10.05636298   1       1  C.gga
   10.78739089    9.07040225   10.05646457   1       2  C.gga
    9.54138906   11.22826149   10.05668253   1       3  C.gga
   12.03188637   11.22780002   10.03624668   1       4  C.gga
    9.54146661    8.35092422   10.05686808   1       5  C.gga
    8.29556837   10.50889747   10.05689469   1       6  C.gga
   12.03192698    8.35156196   10.03682175   1       7  C.gga
    9.54093486   12.66547099   10.03829236   1       8  C.gga
   13.26051148   10.48486856   10.01858793   1       9  C.gga
   12.00257511   12.66322666   10.02031170   1      10  C.gga
   13.26054001    9.09461373   10.01895318   1      11  C.gga
    8.29557225    9.07024050   10.05695650   1      12  C.gga
   10.79848855   13.35822237   10.02173861   1      13  C.gga
    9.54109445    6.91352798   10.03929526   1      14  C.gga
    7.05084832   11.22727858   10.03982680   1      15  C.gga
   12.00265091    6.91601765   10.02177517   1      16  C.gga
    8.28309513   13.35780058   10.02380185   1      17  C.gga
    7.05093376    8.35159330   10.04039596   1      18  C.gga
   10.79871268    6.22074685   10.02342792   1      19  C.gga
    7.07925483   12.66258356   10.02490528   1      20  C.gga
    8.28325966    6.22103206   10.02556877   1      21  C.gga
    5.82225106   10.48455328   10.02614554   1      22  C.gga
    7.07939037    6.91619856   10.02642277   1      23  C.gga
    5.82234143    9.09438489   10.02654374   1      24  C.gga
   14.21961059   11.03987323    9.99623174   2      25  H.gga
   12.96274978   13.21641035    9.99909094   2      26  H.gga
   14.21959698    8.53945577    9.99682406   2      27  H.gga
   10.79716910   14.46637763   10.00161059   2      28  H.gga
   12.96285466    6.36284407   10.00158231   2      29  H.gga
    8.28415483   14.46593566   10.00520053   2      30  H.gga
   10.79739269    5.11251975   10.00440974   2      31  H.gga
    6.11868027   13.21521703   10.00700098   2      32  H.gga
    8.28422491    5.11285229   10.00814952   2      33  H.gga
    4.86324420   11.03973437   10.00944040   2      34  H.gga
    6.11874514    6.36356664   10.00954031   2      35  H.gga
    4.86333424    8.53912238   10.01015817   2      36  H.gga

outcell: Unit cell vectors (Ang):
       20.000000    0.000000    0.000000
        0.000000   20.000000    0.000000
        0.000000    0.000000   20.000000

outcell: Cell vector modules (Ang)   :   20.000000   20.000000   20.000000
outcell: Cell angles (23,13,12) (deg):     90.0000     90.0000     90.0000
outcell: Cell volume (Ang**3)        :   8000.0000
<dSpData1D:S at geom step 33
  <sparsity:sparsity for geom step 33
    nrows_g=372 nrows=372 sparsity=.9040 nnzs=125100, refcount: 7>
  <dData1D:(new from dSpData1D) n=125100, refcount: 1>
refcount: 1>
new_DM -- step:    34
Re-using DM from previous geometries...
Number of DMs in history: 1
 DM extrapolation coefficients: 
1   1.00000
New DM after history re-use:
<dSpData2D:SpM extrapolated using coords
  <sparsity:sparsity for geom step 33
    nrows_g=372 nrows=372 sparsity=.9040 nnzs=125100, refcount: 8>
  <dData2D:(temp array for extrapolation) n=125100 m=1, refcount: 1>
refcount: 1>
No. of atoms with KB's overlaping orbs in proc 0. Max # of overlaps:      36     242
New grid distribution:   1
           1       1:  108    1:  108    1:  108

InitMesh: MESH =   216 x   216 x   216 =    10077696
InitMesh: (bp) =   108 x   108 x   108 =     1259712
InitMesh: Mesh cutoff (required, used) =   300.000   322.366 Ry
ExtMesh (bp) on 0 =   188 x   188 x   188 =     6644672
PhiOnMesh: Number of (b)points on node 0 =              1259712
PhiOnMesh: nlist on node 0 =              8486845

        iscf     Eharris(eV)        E_KS(eV)     FreeEng(eV)     dDmax    Ef(eV) dHmax(eV)
   scf:    1    -4085.125201    -4085.121235    -4085.121235  0.000593 -3.751724  0.003068
   scf:    2    -4085.121198    -4085.121229    -4085.121229  0.000091 -3.750922  0.005465
   scf:    3    -4085.121249    -4085.121244    -4085.121244  0.000051 -3.751525  0.000268

SCF Convergence by DM+H criterion
max |DM_out - DM_in|         :     0.0000513991
max |H_out - H_in|      (eV) :     0.0002678039
SCF cycle converged after 3 iterations

Using DM_out to compute the final energy and forces
No. of atoms with KB's overlaping orbs in proc 0. Max # of overlaps:      36     242

siesta: E_KS(eV) =            -4085.1212

siesta: Atomic forces (eV/Ang):
----------------------------------------
   Tot   -0.003876    0.010363   -0.002021
----------------------------------------
   Max    0.011656
   Res    0.003633    sqrt( Sum f_i^2 / 3N )
----------------------------------------
   Max    0.011656    constrained

Stress-tensor-Voigt (kbar):       -0.02       -0.01       -0.00        0.00        0.00        0.00
(Free)E + p*V (eV/cell)    -4085.0712
Target enthalpy (eV/cell)    -4085.1212

                     ====================================
                        Begin Broyden opt. move =     34
                     ====================================

outcoor: Atomic coordinates (Ang):                          
   10.78725741   10.50916879   10.05317278   1       1  C.gga
   10.78733480    9.07045471   10.05328866   1       2  C.gga
    9.54131770   11.22836076   10.05356742   1       3  C.gga
   12.03191342   11.22786074   10.03501815   1       4  C.gga
    9.54137288    8.35093439   10.05377044   1       5  C.gga
    8.29542865   10.50896925   10.05383036   1       6  C.gga
   12.03196124    8.35164430   10.03563064   1       7  C.gga
    9.54097902   12.66562287   10.03704269   1       8  C.gga
   13.26055843   10.48496497   10.01873358   1       9  C.gga
   12.00257420   12.66330573   10.02055642   1      10  C.gga
   13.26062715    9.09466566   10.01908583   1      11  C.gga
    8.29543729    9.07030657   10.05392633   1      12  C.gga
   10.79856785   13.35837700   10.02175935   1      13  C.gga
    9.54115189    6.91347224   10.03806922   1      14  C.gga
    7.05065822   11.22744034   10.03869209   1      15  C.gga
   12.00271360    6.91605625   10.02211462   1      16  C.gga
    8.28305834   13.35793649   10.02419192   1      17  C.gga
    7.05076213    8.35153611   10.03926340   1      18  C.gga
   10.79880775    6.22071559   10.02348521   1      19  C.gga
    7.07917141   12.66280664   10.02516674   1      20  C.gga
    8.28326450    6.22097155   10.02599145   1      21  C.gga
    5.82212395   10.48455230   10.02657958   1      22  C.gga
    7.07932827    6.91604790   10.02673756   1      23  C.gga
    5.82217548    9.09441764   10.02692467   1      24  C.gga
   14.21974740   11.03999219    9.99818385   2      25  H.gga
   12.96286298   13.21647594   10.00115436   2      26  H.gga
   14.21973860    8.53951180    9.99872314   2      27  H.gga
   10.79737438   14.46664820   10.00328178   2      28  H.gga
   12.96299812    6.36292535   10.00367781   2      29  H.gga
    8.28410415   14.46610782   10.00726427   2      30  H.gga
   10.79766435    5.11239843   10.00603206   2      31  H.gga
    6.11867709   13.21569643   10.00870385   2      32  H.gga
    8.28423889    5.11277355   10.01017223   2      33  H.gga
    4.86294812   11.03961730   10.01124528   2      34  H.gga
    6.11881497    6.36314587   10.01126097   2      35  H.gga
    4.86303510    8.53928771   10.01190420   2      36  H.gga

outcell: Unit cell vectors (Ang):
       20.000000    0.000000    0.000000
        0.000000   20.000000    0.000000
        0.000000    0.000000   20.000000

outcell: Cell vector modules (Ang)   :   20.000000   20.000000   20.000000
outcell: Cell angles (23,13,12) (deg):     90.0000     90.0000     90.0000
outcell: Cell volume (Ang**3)        :   8000.0000
<dSpData1D:S at geom step 34
  <sparsity:sparsity for geom step 34
    nrows_g=372 nrows=372 sparsity=.9040 nnzs=125100, refcount: 7>
  <dData1D:(new from dSpData1D) n=125100, refcount: 1>
refcount: 1>
new_DM -- step:    35
Re-using DM from previous geometries...
Number of DMs in history: 1
 DM extrapolation coefficients: 
1   1.00000
New DM after history re-use:
<dSpData2D:SpM extrapolated using coords
  <sparsity:sparsity for geom step 34
    nrows_g=372 nrows=372 sparsity=.9040 nnzs=125100, refcount: 8>
  <dData2D:(temp array for extrapolation) n=125100 m=1, refcount: 1>
refcount: 1>
No. of atoms with KB's overlaping orbs in proc 0. Max # of overlaps:      36     242
New grid distribution:   1
           1       1:  108    1:  108    1:  108

InitMesh: MESH =   216 x   216 x   216 =    10077696
InitMesh: (bp) =   108 x   108 x   108 =     1259712
InitMesh: Mesh cutoff (required, used) =   300.000   322.366 Ry
ExtMesh (bp) on 0 =   188 x   188 x   188 =     6644672
PhiOnMesh: Number of (b)points on node 0 =              1259712
PhiOnMesh: nlist on node 0 =              8486549

        iscf     Eharris(eV)        E_KS(eV)     FreeEng(eV)     dDmax    Ef(eV) dHmax(eV)
   scf:    1    -4085.127084    -4085.121574    -4085.121574  0.000615 -3.751635  0.003141
   scf:    2    -4085.121533    -4085.121567    -4085.121567  0.000096 -3.751201  0.006402
   scf:    3    -4085.121588    -4085.121582    -4085.121582  0.000055 -3.751584  0.000340

SCF Convergence by DM+H criterion
max |DM_out - DM_in|         :     0.0000553733
max |H_out - H_in|      (eV) :     0.0003404656
SCF cycle converged after 3 iterations

Using DM_out to compute the final energy and forces
No. of atoms with KB's overlaping orbs in proc 0. Max # of overlaps:      36     242

siesta: E_KS(eV) =            -4085.1216

siesta: Atomic forces (eV/Ang):
----------------------------------------
   Tot   -0.003924    0.008273   -0.002339
----------------------------------------
   Max    0.009999
   Res    0.003362    sqrt( Sum f_i^2 / 3N )
----------------------------------------
   Max    0.009999    constrained

Stress-tensor-Voigt (kbar):       -0.01       -0.01       -0.00        0.00       -0.00        0.00
(Free)E + p*V (eV/cell)    -4085.0944
Target enthalpy (eV/cell)    -4085.1216

outcoor: Relaxed atomic coordinates (Ang):                  
   10.78725741   10.50916879   10.05317278   1       1  C.gga
   10.78733480    9.07045471   10.05328866   1       2  C.gga
    9.54131770   11.22836076   10.05356742   1       3  C.gga
   12.03191342   11.22786074   10.03501815   1       4  C.gga
    9.54137288    8.35093439   10.05377044   1       5  C.gga
    8.29542865   10.50896925   10.05383036   1       6  C.gga
   12.03196124    8.35164430   10.03563064   1       7  C.gga
    9.54097902   12.66562287   10.03704269   1       8  C.gga
   13.26055843   10.48496497   10.01873358   1       9  C.gga
   12.00257420   12.66330573   10.02055642   1      10  C.gga
   13.26062715    9.09466566   10.01908583   1      11  C.gga
    8.29543729    9.07030657   10.05392633   1      12  C.gga
   10.79856785   13.35837700   10.02175935   1      13  C.gga
    9.54115189    6.91347224   10.03806922   1      14  C.gga
    7.05065822   11.22744034   10.03869209   1      15  C.gga
   12.00271360    6.91605625   10.02211462   1      16  C.gga
    8.28305834   13.35793649   10.02419192   1      17  C.gga
    7.05076213    8.35153611   10.03926340   1      18  C.gga
   10.79880775    6.22071559   10.02348521   1      19  C.gga
    7.07917141   12.66280664   10.02516674   1      20  C.gga
    8.28326450    6.22097155   10.02599145   1      21  C.gga
    5.82212395   10.48455230   10.02657958   1      22  C.gga
    7.07932827    6.91604790   10.02673756   1      23  C.gga
    5.82217548    9.09441764   10.02692467   1      24  C.gga
   14.21974740   11.03999219    9.99818385   2      25  H.gga
   12.96286298   13.21647594   10.00115436   2      26  H.gga
   14.21973860    8.53951180    9.99872314   2      27  H.gga
   10.79737438   14.46664820   10.00328178   2      28  H.gga
   12.96299812    6.36292535   10.00367781   2      29  H.gga
    8.28410415   14.46610782   10.00726427   2      30  H.gga
   10.79766435    5.11239843   10.00603206   2      31  H.gga
    6.11867709   13.21569643   10.00870385   2      32  H.gga
    8.28423889    5.11277355   10.01017223   2      33  H.gga
    4.86294812   11.03961730   10.01124528   2      34  H.gga
    6.11881497    6.36314587   10.01126097   2      35  H.gga
    4.86303510    8.53928771   10.01190420   2      36  H.gga

coxmol: Writing XMOL coordinates into file LiCoronene.xyz                                                      

siesta: Program's energy decomposition (eV):
siesta: Ebs     =     -1359.214983
siesta: Eions   =      6359.269204
siesta: Ena     =      1431.706781
siesta: Ekin    =      2729.149842
siesta: Enl     =      -315.016760
siesta: Eso     =         0.000000
siesta: Eldau   =         0.000000
siesta: DEna    =      -141.554746
siesta: DUscf   =        15.094104
siesta: DUext   =         0.000000
siesta: Exc     =     -1445.231599
siesta: eta*DQ  =         0.000000
siesta: Emadel  =         0.000000
siesta: Emeta   =         0.000000
siesta: Emolmec =         0.000000
siesta: Ekinion =         0.000000
siesta: Eharris =     -4085.121588
siesta: Etot    =     -4085.121582
siesta: FreeEng =     -4085.121582

siesta: Final energy (eV):
siesta:  Band Struct. =   -1359.214983
siesta:       Kinetic =    2729.149842
siesta:       Hartree =   14917.703110
siesta:       Eldau   =       0.000000
siesta:       Eso     =       0.000000
siesta:    Ext. field =       0.000000
siesta:   Exch.-corr. =   -1445.231599
siesta:  Ion-electron =  -32282.648920
siesta:       Ion-ion =   11995.905985
siesta:       Ekinion =       0.000000
siesta:         Total =   -4085.121582
siesta:         Fermi =      -3.751584

siesta: Stress tensor (static) (eV/Ang**3):
siesta:    -0.000006    0.000001    0.000000
siesta:     0.000001   -0.000004   -0.000000
siesta:     0.000000   -0.000000   -0.000000

siesta: Cell volume =       8000.000000 Ang**3

siesta: Pressure (static):
siesta:                Solid            Molecule  Units
siesta:           0.00000004         -0.00000000  Ry/Bohr**3
siesta:           0.00000339         -0.00000000  eV/Ang**3
siesta:           0.00543534         -0.00000781  kBar
(Free)E+ p_basis*V_orbitals  =       -4063.242209
(Free)Eharris+ p_basis*V_orbitals  =       -4063.242214

siesta: Electric dipole (a.u.)  =   -0.000312   -0.000089   -0.037740
siesta: Electric dipole (Debye) =   -0.000794   -0.000226   -0.095924

timer: Elapsed wall time (sec) =    2403.854
timer: CPU execution times (sec):

Routine            Calls   Time/call    Tot.time        %
siesta                 1    2403.854    2403.854   100.00
Setup                  1       0.242       0.242     0.01
bands                  1       0.000       0.000     0.00
KSV_init               1       0.000       0.000     0.00
IterGeom              35      68.673    2403.569    99.99
state_init            35       0.057       2.012     0.08
hsparse               35       0.008       0.289     0.01
overlap               35       0.043       1.508     0.06
Setup_H0              35       8.643     302.501    12.58
naefs                 70       0.000       0.019     0.00
MolMec                70       0.000       0.000     0.00
kinefsm               70       0.043       2.995     0.12
nlefsm                70       0.260      18.207     0.76
DHSCF_Init            35       8.448     295.687    12.30
DHSCF1                35       0.094       3.290     0.14
INITMESH              35       0.000       0.000     0.00
DHSCF2                35       8.354     292.396    12.16
REMESH                35       0.343      12.005     0.50
REORD                993       0.019      18.752     0.78
PHION                 35       6.225     217.882     9.06
COMM_BSC             573       0.020      11.401     0.47
POISON               269       0.890     239.518     9.96
fft                  538       0.357     192.059     7.99
IterSCF              164       8.766    1437.556    59.80
setup_H              199       7.111    1415.032    58.87
DHSCF                234       8.791    2057.204    85.58
DHSCF3               234       7.082    1657.125    68.94
rhoofd               234       2.418     565.726    23.53
CellXC               234       1.988     465.292    19.36
cellXC               234       1.988     465.289    19.36
vmat                 234       1.543     361.022    15.02
compute_dm           164       0.132      21.605     0.90
diagon               164       0.130      21.314     0.89
r-eigvec             164       0.119      19.442     0.81
r-buildHS            164       0.000       0.071     0.00
rdiag                164       0.118      19.371     0.81
rdiag1               164       0.009       1.430     0.06
rdiag2               164       0.019       3.114     0.13
rdiag3               164       0.074      12.074     0.50
rdiag4               164       0.016       2.694     0.11
r-buildD             164       0.011       1.755     0.07
MIXER                129       0.002       0.200     0.01
PostSCF               35      18.887     661.043    27.50
DHSCF4                35      11.431     400.079    16.64
dfscf                 35      10.339     361.855    15.05
overfsm               35       0.042       1.456     0.06
state_analysis        35       0.003       0.094     0.00
siesta_move           35       0.001       0.046     0.00
Analysis               1       0.005       0.005     0.00
optical                1       0.000       0.000     0.00
  
>> End of run:  23-AUG-2019   2:05:40
Job completed
