
                           ***********************       
                           *  WELCOME TO SIESTA  *       
                           ***********************       

reinit: Reading from input.fdf

reinit: -----------------------------------------------------------------------
reinit: System Name: 
reinit: -----------------------------------------------------------------------
reinit: System Label: Phenol
reinit: -----------------------------------------------------------------------
Siesta Version: siesta-4.1--736
Architecture  : unknown
Compiler flags: gfortran -O3 -fPIC -ftree-vectorize -fopenmp
PP flags      : -DFC_HAVE_ABORT
Libraries     : -L/usr/local/opt/openblas/lib -lopenblas -fopenmp
SERIAL version

* Running in serial mode
* Running 4 OpenMP threads.
* Running 4 processes.
* OpenMP version 201511
* OpenMP runtime schedule DYNAMIC, chunks 1
** OpenMP runtime schedule DYNAMIC, chunks 32
>> Start of run:  21-MAR-2019  19:02:52

initatom: Reading input for the pseudopotentials and atomic orbitals ----------
Species number:   1 Atomic number:    6 Label: C.gga
Species number:   2 Atomic number:    1 Label: H.gga
Species number:   3 Atomic number:    8 Label: O.gga

Ground state valence configuration:   2s02  2p02
Reading pseudopotential information in formatted form from C.gga.psf

Valence configuration for pseudopotential generation:
2s( 2.00) rc: 1.54
2p( 2.00) rc: 1.54
3d( 0.00) rc: 1.54
4f( 0.00) rc: 1.54
Ground state valence configuration:   1s01
Reading pseudopotential information in formatted form from H.gga.psf

Valence configuration for pseudopotential generation:
1s( 1.00) rc: 1.31
2p( 0.00) rc: 1.31
3d( 0.00) rc: 0.37
4f( 0.00) rc: 1.31
Ground state valence configuration:   2s02  2p04
Reading pseudopotential information in formatted form from O.gga.psf

Valence configuration for pseudopotential generation:
2s( 2.00) rc: 1.47
2p( 4.00) rc: 1.47
3d( 0.00) rc: 1.47
4f( 0.00) rc: 1.47
For C.gga, standard SIESTA heuristics set lmxkb to 3
 (one more than the basis l, including polarization orbitals).
Use PS.lmax or PS.KBprojectors blocks to override.
For H.gga, standard SIESTA heuristics set lmxkb to 2
 (one more than the basis l, including polarization orbitals).
Use PS.lmax or PS.KBprojectors blocks to override.
For O.gga, standard SIESTA heuristics set lmxkb to 3
 (one more than the basis l, including polarization orbitals).
Use PS.lmax or PS.KBprojectors blocks to override.

<basis_specs>
===============================================================================
C.gga                Z=   6    Mass=  12.010        Charge= 0.17977+309
Lmxo=1 Lmxkb= 3    BasisType=split      Semic=F
L=0  Nsemic=0  Cnfigmx=2
          n=1  nzeta=2  polorb=0
            splnorm:   0.15000    
               vcte:    0.0000    
               rinn:    0.0000    
               qcoe:    0.0000    
               qyuk:    0.0000    
               qwid:   0.10000E-01
                rcs:    0.0000      0.0000    
            lambdas:    1.0000      1.0000    
L=1  Nsemic=0  Cnfigmx=2
          n=1  nzeta=2  polorb=1
            splnorm:   0.15000    
               vcte:    0.0000    
               rinn:    0.0000    
               qcoe:    0.0000    
               qyuk:    0.0000    
               qwid:   0.10000E-01
                rcs:    0.0000      0.0000    
            lambdas:    1.0000      1.0000    
-------------------------------------------------------------------------------
L=0  Nkbl=1  erefs: 0.17977+309
L=1  Nkbl=1  erefs: 0.17977+309
L=2  Nkbl=1  erefs: 0.17977+309
L=3  Nkbl=1  erefs: 0.17977+309
===============================================================================
</basis_specs>

atom: Called for C.gga                 (Z =   6)

read_vps: Pseudopotential generation method:
read_vps: ATM3      Troullier-Martins                       
Total valence charge:    4.00000

read_vps: Pseudopotential includes a core correction:
read_vps: Pseudo-core for xc-correction

xc_check: Exchange-correlation functional:
xc_check: GGA Perdew, Burke & Ernzerhof 1996
V l=0 = -2*Zval/r beyond r=  1.5227
V l=1 = -2*Zval/r beyond r=  1.5227
V l=2 = -2*Zval/r beyond r=  1.5227
V l=3 = -2*Zval/r beyond r=  1.5038
All V_l potentials equal beyond r=  1.5227
This should be close to max(r_c) in ps generation
All pots = -2*Zval/r beyond r=  1.5227

VLOCAL1: 99.0% of the norm of Vloc inside     18.722 Ry
VLOCAL1: 99.9% of the norm of Vloc inside     42.668 Ry
atom: Maximum radius for 4*pi*r*r*local-pseudopot. charge    1.83678
atom: Maximum radius for r*vlocal+2*Zval:    1.58088
GHOST: No ghost state for L =  0
GHOST: No ghost state for L =  1
GHOST: No ghost state for L =  2
GHOST: No ghost state for L =  3

KBgen: Kleinman-Bylander projectors: 
   l= 0   rc=  1.704034   el= -1.009801   Ekb=  5.335044   kbcos=  0.316824
   l= 1   rc=  1.704034   el= -0.388707   Ekb= -3.785862   kbcos= -0.366464
   l= 2   rc=  1.791422   el=  0.001971   Ekb= -0.970471   kbcos= -0.009212
   l= 3   rc=  1.859892   el=  0.003065   Ekb= -0.399525   kbcos= -0.001223

KBgen: Total number of  Kleinman-Bylander projectors:   16
atom: -------------------------------------------------------------------------

atom: SANKEY-TYPE ORBITALS:
atom: Selected multiple-zeta basis: split     

SPLIT: Orbitals with angular momentum L= 0

SPLIT: Basis orbitals for state 2s

SPLIT: PAO cut-off radius determined from an
SPLIT: energy shift=  0.002205 Ry

   izeta = 1
                 lambda =    1.000000
                     rc =    5.382558
                 energy =   -1.007983
                kinetic =    0.829025
    potential(screened) =   -1.837009
       potential(ionic) =   -5.376592

   izeta = 2
                 rmatch =    3.475094
              splitnorm =    0.150000
                 energy =   -0.876935
                kinetic =    1.279964
    potential(screened) =   -2.156899
       potential(ionic) =   -5.943761

SPLIT: Orbitals with angular momentum L= 1

SPLIT: Basis orbitals for state 2p

SPLIT: PAO cut-off radius determined from an
SPLIT: energy shift=  0.002205 Ry

   izeta = 1
                 lambda =    1.000000
                     rc =    6.740804
                 energy =   -0.386704
                kinetic =    2.327316
    potential(screened) =   -2.714020
       potential(ionic) =   -6.100339

   izeta = 2
                 rmatch =    3.792903
              splitnorm =    0.150000
                 energy =   -0.270625
                kinetic =    3.420974
    potential(screened) =   -3.691599
       potential(ionic) =   -7.453004

POLgen: Perturbative polarization orbital with L=  2

POLgen: Polarization orbital for state 2p

   izeta = 1
                     rc =    6.740804
                 energy =    0.975645
                kinetic =    2.058046
    potential(screened) =   -1.082401
       potential(ionic) =   -3.782952
atom: Total number of Sankey-type orbitals: 13

atm_pop: Valence configuration (for local Pseudopot. screening):
 2s( 2.00)                                                            
 2p( 2.00)                                                            
Vna: chval, zval:    4.00000   4.00000

Vna:  Cut-off radius for the neutral-atom potential:   6.740804
comcore: Pseudo-core radius Rcore=  1.791422

atom: _________________________________________________________________________

<basis_specs>
===============================================================================
H.gga                Z=   1    Mass=  1.0100        Charge= 0.17977+309
Lmxo=0 Lmxkb= 2    BasisType=split      Semic=F
L=0  Nsemic=0  Cnfigmx=1
          n=1  nzeta=2  polorb=1
            splnorm:   0.15000    
               vcte:    0.0000    
               rinn:    0.0000    
               qcoe:    0.0000    
               qyuk:    0.0000    
               qwid:   0.10000E-01
                rcs:    0.0000      0.0000    
            lambdas:    1.0000      1.0000    
-------------------------------------------------------------------------------
L=0  Nkbl=1  erefs: 0.17977+309
L=1  Nkbl=1  erefs: 0.17977+309
L=2  Nkbl=1  erefs: 0.17977+309
===============================================================================
</basis_specs>

atom: Called for H.gga                 (Z =   1)

read_vps: Pseudopotential generation method:
read_vps: ATM3      Troullier-Martins                       
Total valence charge:    1.00000

xc_check: Exchange-correlation functional:
xc_check: GGA Perdew, Burke & Ernzerhof 1996
V l=0 = -2*Zval/r beyond r=  1.2977
V l=1 = -2*Zval/r beyond r=  1.2815
V l=2 = -2*Zval/r beyond r=  1.2656
All V_l potentials equal beyond r=  1.2977
This should be close to max(r_c) in ps generation
All pots = -2*Zval/r beyond r=  1.2977

VLOCAL1: 99.0% of the norm of Vloc inside     25.776 Ry
VLOCAL1: 99.9% of the norm of Vloc inside     58.745 Ry
atom: Maximum radius for 4*pi*r*r*local-pseudopot. charge    1.52711
atom: Maximum radius for r*vlocal+2*Zval:    1.28155
GHOST: No ghost state for L =  0
GHOST: No ghost state for L =  1
GHOST: No ghost state for L =  2

KBgen: Kleinman-Bylander projectors: 
   l= 0   rc=  1.434438   el= -0.477200   Ekb= -1.957043   kbcos= -0.361614
   l= 1   rc=  1.508111   el=  0.001076   Ekb= -0.424224   kbcos= -0.025441
   l= 2   rc=  1.527112   el=  0.002010   Ekb= -0.378578   kbcos= -0.002010

KBgen: Total number of  Kleinman-Bylander projectors:    9
atom: -------------------------------------------------------------------------

atom: SANKEY-TYPE ORBITALS:
atom: Selected multiple-zeta basis: split     

SPLIT: Orbitals with angular momentum L= 0

SPLIT: Basis orbitals for state 1s

SPLIT: PAO cut-off radius determined from an
SPLIT: energy shift=  0.002205 Ry

   izeta = 1
                 lambda =    1.000000
                     rc =    6.518340
                 energy =   -0.475328
                kinetic =    0.879188
    potential(screened) =   -1.354517
       potential(ionic) =   -1.873657

   izeta = 2
                 rmatch =    4.103729
              splitnorm =    0.150000
                 energy =   -0.382914
                kinetic =    1.427335
    potential(screened) =   -1.810249
       potential(ionic) =   -2.357086

POLgen: Perturbative polarization orbital with L=  1

POLgen: Polarization orbital for state 1s

   izeta = 1
                     rc =    6.518340
                 energy =    0.536347
                kinetic =    1.136516
    potential(screened) =   -0.600169
       potential(ionic) =   -1.065665
atom: Total number of Sankey-type orbitals:  5

atm_pop: Valence configuration (for local Pseudopot. screening):
 1s( 1.00)                                                            
Vna: chval, zval:    1.00000   1.00000

Vna:  Cut-off radius for the neutral-atom potential:   6.518340

atom: _________________________________________________________________________

<basis_specs>
===============================================================================
O.gga                Z=   8    Mass=  16.000        Charge= 0.17977+309
Lmxo=1 Lmxkb= 3    BasisType=split      Semic=F
L=0  Nsemic=0  Cnfigmx=2
          n=1  nzeta=2  polorb=0
            splnorm:   0.15000    
               vcte:    0.0000    
               rinn:    0.0000    
               qcoe:    0.0000    
               qyuk:    0.0000    
               qwid:   0.10000E-01
                rcs:    0.0000      0.0000    
            lambdas:    1.0000      1.0000    
L=1  Nsemic=0  Cnfigmx=2
          n=1  nzeta=2  polorb=1
            splnorm:   0.15000    
               vcte:    0.0000    
               rinn:    0.0000    
               qcoe:    0.0000    
               qyuk:    0.0000    
               qwid:   0.10000E-01
                rcs:    0.0000      0.0000    
            lambdas:    1.0000      1.0000    
-------------------------------------------------------------------------------
L=0  Nkbl=1  erefs: 0.17977+309
L=1  Nkbl=1  erefs: 0.17977+309
L=2  Nkbl=1  erefs: 0.17977+309
L=3  Nkbl=1  erefs: 0.17977+309
===============================================================================
</basis_specs>

atom: Called for O.gga                 (Z =   8)

read_vps: Pseudopotential generation method:
read_vps: ATM3      Troullier-Martins                       
Total valence charge:    6.00000

read_vps: Pseudopotential includes a core correction:
read_vps: Pseudo-core for xc-correction

xc_check: Exchange-correlation functional:
xc_check: GGA Perdew, Burke & Ernzerhof 1996
V l=0 = -2*Zval/r beyond r=  1.4482
V l=1 = -2*Zval/r beyond r=  1.4482
V l=2 = -2*Zval/r beyond r=  1.4482
V l=3 = -2*Zval/r beyond r=  1.4482
All V_l potentials equal beyond r=  1.4482
This should be close to max(r_c) in ps generation
All pots = -2*Zval/r beyond r=  1.4482

VLOCAL1: 99.0% of the norm of Vloc inside     20.696 Ry
VLOCAL1: 99.9% of the norm of Vloc inside     47.167 Ry
atom: Maximum radius for 4*pi*r*r*local-pseudopot. charge    1.74697
atom: Maximum radius for r*vlocal+2*Zval:    1.52250
GHOST: No ghost state for L =  0
GHOST: No ghost state for L =  1
GHOST: No ghost state for L =  2
GHOST: No ghost state for L =  3

KBgen: Kleinman-Bylander projectors: 
   l= 0   rc=  1.620715   el= -1.757696   Ekb=  4.880948   kbcos=  0.293490
   l= 1   rc=  1.600578   el= -0.664256   Ekb= -6.909822   kbcos= -0.499892
   l= 2   rc=  1.703827   el=  0.002031   Ekb= -1.539219   kbcos= -0.006778
   l= 3   rc=  1.746967   el=  0.003153   Ekb= -0.568983   kbcos= -0.000967

KBgen: Total number of  Kleinman-Bylander projectors:   16
atom: -------------------------------------------------------------------------

atom: SANKEY-TYPE ORBITALS:
atom: Selected multiple-zeta basis: split     

SPLIT: Orbitals with angular momentum L= 0

SPLIT: Basis orbitals for state 2s

SPLIT: PAO cut-off radius determined from an
SPLIT: energy shift=  0.002205 Ry

   izeta = 1
                 lambda =    1.000000
                     rc =    4.139122
                 energy =   -1.755549
                kinetic =    1.529685
    potential(screened) =   -3.285233
       potential(ionic) =  -11.160563

   izeta = 2
                 rmatch =    2.541963
              splitnorm =    0.150000
                 energy =   -1.517776
                kinetic =    2.348222
    potential(screened) =   -3.865999
       potential(ionic) =  -12.356890

SPLIT: Orbitals with angular momentum L= 1

SPLIT: Basis orbitals for state 2p

SPLIT: PAO cut-off radius determined from an
SPLIT: energy shift=  0.002205 Ry

   izeta = 1
                 lambda =    1.000000
                     rc =    5.314825
                 energy =   -0.662390
                kinetic =    4.472446
    potential(screened) =   -5.134836
       potential(ionic) =  -12.694617

   izeta = 2
                 rmatch =    2.705925
              splitnorm =    0.150000
                 energy =   -0.427537
                kinetic =    6.597007
    potential(screened) =   -7.024544
       potential(ionic) =  -15.479186

POLgen: Perturbative polarization orbital with L=  2

POLgen: Polarization orbital for state 2p

   izeta = 1
                     rc =    5.314825
                 energy =    1.979175
                kinetic =    4.015874
    potential(screened) =   -2.036699
       potential(ionic) =   -7.919671
atom: Total number of Sankey-type orbitals: 13

atm_pop: Valence configuration (for local Pseudopot. screening):
 2s( 2.00)                                                            
 2p( 4.00)                                                            
Vna: chval, zval:    6.00000   6.00000

Vna:  Cut-off radius for the neutral-atom potential:   5.314825
comcore: Pseudo-core radius Rcore=  1.377587

atom: _________________________________________________________________________

prinput: Basis input ----------------------------------------------------------

PAO.BasisType split     

%block ChemicalSpeciesLabel
    1    6 C.gga                   # Species index, atomic number, species label
    2    1 H.gga                   # Species index, atomic number, species label
    3    8 O.gga                   # Species index, atomic number, species label
%endblock ChemicalSpeciesLabel

%block PAO.Basis                 # Define Basis set
C.gga                 2                    # Species label, number of l-shells
 n=2   0   2                         # n, l, Nzeta 
   5.383      3.475   
   1.000      1.000   
 n=2   1   2 P   1                   # n, l, Nzeta, Polarization, NzetaPol
   6.741      3.793   
   1.000      1.000   
H.gga                 1                    # Species label, number of l-shells
 n=1   0   2 P   1                   # n, l, Nzeta, Polarization, NzetaPol
   6.518      4.104   
   1.000      1.000   
O.gga                 2                    # Species label, number of l-shells
 n=2   0   2                         # n, l, Nzeta 
   4.139      2.542   
   1.000      1.000   
 n=2   1   2 P   1                   # n, l, Nzeta, Polarization, NzetaPol
   5.315      2.706   
   1.000      1.000   
%endblock PAO.Basis

prinput: ----------------------------------------------------------------------

coor:   Atomic-coordinates input format  =     Cartesian coordinates
coor:                                          (in Angstroms)

siesta: Atomic coordinates (Bohr) and species
siesta:      4.13884   2.11496   0.00000  1        1
siesta:      6.44149   3.41145   0.00000  1        2
siesta:      6.47265   6.05474   0.00000  1        3
siesta:      4.19960   7.40994   0.00000  1        4
siesta:      1.88980   6.10327   0.00000  1        5
siesta:      1.86435   3.46007   0.00000  1        6
siesta:      2.71593  10.95093   0.00000  2        7
siesta:      4.11709   0.06975   0.00000  2        8
siesta:      8.20111   2.36877   0.00000  2        9
siesta:      8.26045   7.04989   0.00000  2       10
siesta:      0.12145   7.13257   0.00000  2       11
siesta:      0.08288   2.45511   0.00000  2       12
siesta:      4.25190   9.95775   0.00000  3       13

siesta: System type = molecule  

initatomlists: Number of atoms, orbitals, and projectors:     13   121   166

coxmol: Writing XMOL coordinates into file Phenol.xyz                                                          

siesta: ******************** Simulation parameters ****************************
siesta:
siesta: The following are some of the parameters of the simulation.
siesta: A complete list of the parameters used, including default values,
siesta: can be found in file out.fdf
siesta:
redata: Spin configuration                          = none
redata: Number of spin components                   = 1
redata: Time-Reversal Symmetry                      = T
redata: Spin-spiral                                 = F
redata: Long output                                 =   F
redata: Number of Atomic Species                    =        3
redata: Charge density info will appear in .RHO file
redata: Write Mulliken Pop.                         = NO
redata: Mesh Cutoff                                 =   300.0000 Ry
redata: Net charge of the system                    =     0.0000 |e|
redata: Min. number of SCF Iter                     =        0
redata: Max. number of SCF Iter                     =     1000
redata: SCF mix quantity                            = Hamiltonian
redata: Mix DM or H after convergence               =   F
redata: Recompute H after scf cycle                 =   F
redata: Mix DM in first SCF step                    =   T
redata: Write Pulay info on disk                    =   F
redata: New DM Mixing Weight                        =     0.2500
redata: New DM Occupancy tolerance                  = 0.000000000001
redata: No kicks to SCF
redata: DM Mixing Weight for Kicks                  =     0.5000
redata: Require Harris convergence for SCF          =   F
redata: Harris energy tolerance for SCF             =     0.000100 eV
redata: Require DM convergence for SCF              =   T
redata: DM tolerance for SCF                        =     0.0001
redata: Require EDM convergence for SCF             =   F
redata: EDM tolerance for SCF                       =     0.001000 eV
redata: Require H convergence for SCF               =   T
redata: Hamiltonian tolerance for SCF               =     0.001000 eV
redata: Require (free) Energy convergence for SCF   =   F
redata: (free) Energy tolerance for SCF             =     0.000100 eV
redata: Using Saved Data (generic)                  =   F
redata: Use continuation files for DM               =   F
redata: Neglect nonoverlap interactions             =   F
redata: Method of Calculation                       = Diagonalization
redata: Divide and Conquer                          =   T
redata: Electronic Temperature                      =   299.9869 K
redata: Fix the spin of the system                  =   F
redata: Dynamics option                             = Broyden coord. optimization
redata: Variable cell                               =   F
redata: Maximum number of CG moves                  =     1000
redata: Force tolerance                             =     0.0100 eV/Ang
mix.SCF: Pulay mixing                            = Pulay
mix.SCF:    Variant                              = stable
mix.SCF:    History steps                        = 2
mix.SCF:    Linear mixing weight                 =     0.250000
mix.SCF:    Mixing weight                        =     0.250000
mix.SCF:    SVD condition                        = 0.1000E-07
redata: ***********************************************************************

%block SCF.Mixers
  Pulay
%endblock SCF.Mixers

%block SCF.Mixer.Pulay
  # Mixing method
  method pulay
  variant stable

  # Mixing options
  weight 0.2500
  weight.linear 0.2500
  history 2
%endblock SCF.Mixer.Pulay

DM_history_depth set to one: no extrapolation allowed by default for geometry relaxation
Size of DM history Fstack: 1
Total number of electrons:    36.000000
Total ionic charge:    36.000000
 Kpoints in:            1 . Kpoints trimmed:            1

siesta: k-grid: Number of k-points =     1
siesta: k-grid: Cutoff (effective) =    10.000 Ang
siesta: k-grid: Supercell and displacements
siesta: k-grid:    1   0   0      0.000
siesta: k-grid:    0   1   0      0.000
siesta: k-grid:    0   0   1      0.000


                     ====================================
                        Begin Broyden opt. move =      0
                     ====================================

outcoor: Atomic coordinates (Ang):                          
    2.19018000    1.11919000    0.00000000   1       1  C.gga
    3.40869000    1.80526000    0.00000000   1       2  C.gga
    3.42518000    3.20403000    0.00000000   1       3  C.gga
    2.22233000    3.92117000    0.00000000   1       4  C.gga
    1.00004000    3.22971000    0.00000000   1       5  C.gga
    0.98657000    1.83099000    0.00000000   1       6  C.gga
    1.43721000    5.79498000    0.00000000   2       7  H.gga
    2.17867000    0.03691000    0.00000000   2       8  H.gga
    4.33984000    1.25350000    0.00000000   2       9  H.gga
    4.37124000    3.73064000    0.00000000   2      10  H.gga
    0.06427000    3.77439000    0.00000000   2      11  H.gga
    0.04386000    1.29919000    0.00000000   2      12  H.gga
    2.25001000    5.26941000    0.00000000   3      13  O.gga

outcell: Unit cell vectors (Ang):
       20.000000    0.000000    0.000000
        0.000000   20.000000    0.000000
        0.000000    0.000000   20.000000

outcell: Cell vector modules (Ang)   :   20.000000   20.000000   20.000000
outcell: Cell angles (23,13,12) (deg):     90.0000     90.0000     90.0000
outcell: Cell volume (Ang**3)        :   8000.0000
<dSpData1D:S at geom step 0
  <sparsity:sparsity for geom step 0
    nrows_g=121 nrows=121 sparsity=.9985 nnzs=14619, refcount: 7>
  <dData1D:(new from dSpData1D) n=14619, refcount: 1>
refcount: 1>
new_DM -- step:     1
Initializing Density Matrix...
DM filled with atomic data:
<dSpData2D:DM initialized from atoms
  <sparsity:sparsity for geom step 0
    nrows_g=121 nrows=121 sparsity=.9985 nnzs=14619, refcount: 8>
  <dData2D:DM n=14619 m=1, refcount: 1>
refcount: 1>

No. of atoms with KB's overlaping orbs in proc 0. Max # of overlaps:      13     118
New grid distribution:   1
           1       1:  108    1:  108    1:  108

InitMesh: MESH =   216 x   216 x   216 =    10077696
InitMesh: (bp) =   108 x   108 x   108 =     1259712
InitMesh: Mesh cutoff (required, used) =   300.000   322.366 Ry
ExtMesh (bp) on 0 =   188 x   188 x   188 =     6644672
PhiOnMesh: Number of (b)points on node 0 =              1259712
PhiOnMesh: nlist on node 0 =              2631478

stepf: Fermi-Dirac step function

siesta: Program's energy decomposition (eV):
siesta: Ebs     =      -344.576689
siesta: Eions   =      2250.705553
siesta: Ena     =       437.721806
siesta: Ekin    =      1102.942223
siesta: Enl     =      -208.796467
siesta: Eso     =         0.000000
siesta: Eldau   =         0.000000
siesta: DEna    =       -89.938200
siesta: DUscf   =        14.261340
siesta: DUext   =         0.000000
siesta: Exc     =      -516.434064
siesta: eta*DQ  =         0.000000
siesta: Emadel  =         0.000000
siesta: Emeta   =         0.000000
siesta: Emolmec =         0.000000
siesta: Ekinion =         0.000000
siesta: Eharris =     -1501.243932
siesta: Etot    =     -1510.948914
siesta: FreeEng =     -1510.948914

        iscf     Eharris(eV)        E_KS(eV)     FreeEng(eV)     dDmax    Ef(eV) dHmax(eV)
   scf:    1    -1501.243932    -1510.948914    -1510.948914  1.981527 -8.456082 10.306345
timer: Routine,Calls,Time,% = IterSCF        1       5.317  42.65
   scf:    2    -1517.139230    -1514.422590    -1514.422590  0.135728 -4.893288  4.863545
   scf:    3    -1515.802749    -1515.449627    -1515.449627  0.127516 -3.238067  0.762522
   scf:    4    -1515.528109    -1515.492389    -1515.492389  0.009057 -3.220560  0.522410
   scf:    5    -1515.520476    -1515.508503    -1515.508503  0.009633 -3.175778  0.235011
   scf:    6    -1515.512135    -1515.510513    -1515.510513  0.005920 -3.123677  0.093759
   scf:    7    -1515.510864    -1515.510737    -1515.510737  0.004034 -3.074399  0.030214
   scf:    8    -1515.510961    -1515.510860    -1515.510860  0.000374 -3.071118  0.019974
   scf:    9    -1515.510937    -1515.510904    -1515.510904  0.000450 -3.070035  0.010220
   scf:   10    -1515.510914    -1515.510909    -1515.510909  0.000249 -3.070620  0.005267
   scf:   11    -1515.510912    -1515.510911    -1515.510911  0.000269 -3.071562  0.000877
   scf:   12    -1515.510911    -1515.510911    -1515.510911  0.000019 -3.071732  0.000515

SCF Convergence by DM+H criterion
max |DM_out - DM_in|         :     0.0000185880
max |H_out - H_in|      (eV) :     0.0005148364
SCF cycle converged after 12 iterations

Using DM_out to compute the final energy and forces
No. of atoms with KB's overlaping orbs in proc 0. Max # of overlaps:      13     118

siesta: E_KS(eV) =            -1515.5109

siesta: E_KS - E_eggbox =     -1515.5109

siesta: Atomic forces (eV/Ang):
----------------------------------------
   Tot    0.047125   -0.026207    0.000000
----------------------------------------
   Max    1.738037
   Res    0.565159    sqrt( Sum f_i^2 / 3N )
----------------------------------------
   Max    1.738037    constrained

Stress-tensor-Voigt (kbar):       -1.20       -1.05        0.00       -0.25       -0.00       -0.00
(Free)E + p*V (eV/cell)    -1511.7825
Target enthalpy (eV/cell)    -1515.5109

Broyden_optim: max_history for broyden:   5
Broyden_optim: cycle on maxit: T
Broyden_optim: initial inverse jacobian:   1.0000

Broyden_optim: No of elements:     39

                     ====================================
                        Begin Broyden opt. move =      1
                     ====================================

outcoor: Atomic coordinates (Ang):                          
    2.19042384    1.11982006    0.00000000   1       1  C.gga
    3.39786150    1.81173824    0.00000000   1       2  C.gga
    3.42862571    3.20201248    0.00000000   1       3  C.gga
    2.19713415    3.91878318   -0.00000000   1       4  C.gga
    1.00367341    3.21867544    0.00000000   1       5  C.gga
    0.99415036    1.83654407   -0.00000000   1       6  C.gga
    1.42494997    5.78056255   -0.00000000   2       7  H.gga
    2.17838357    0.01856828    0.00000000   2       8  H.gga
    4.35617029    1.24517795    0.00000000   2       9  H.gga
    4.38576030    3.74172554   -0.00000000   2      10  H.gga
    0.04874795    3.78550372   -0.00000000   2      11  H.gga
    0.02739738    1.29058122    0.00000000   2      12  H.gga
    2.28578148    5.29913789    0.00000000   3      13  O.gga

outcell: Unit cell vectors (Ang):
       20.000000    0.000000    0.000000
        0.000000   20.000000    0.000000
        0.000000    0.000000   20.000000

outcell: Cell vector modules (Ang)   :   20.000000   20.000000   20.000000
outcell: Cell angles (23,13,12) (deg):     90.0000     90.0000     90.0000
outcell: Cell volume (Ang**3)        :   8000.0000
<dSpData1D:S at geom step 1
  <sparsity:sparsity for geom step 1
    nrows_g=121 nrows=121 sparsity=.9981 nnzs=14613, refcount: 7>
  <dData1D:(new from dSpData1D) n=14613, refcount: 1>
refcount: 1>
new_DM -- step:     2
Re-using DM from previous geometries...
Number of DMs in history: 1
 DM extrapolation coefficients: 
1   1.00000
New DM after history re-use:
<dSpData2D:SpM extrapolated using coords
  <sparsity:sparsity for geom step 1
    nrows_g=121 nrows=121 sparsity=.9981 nnzs=14613, refcount: 8>
  <dData2D:(temp array for extrapolation) n=14613 m=1, refcount: 1>
refcount: 1>
Note: For starting DM, Qtot, Tr[D*S] =         36.00000000         35.92544749
No. of atoms with KB's overlaping orbs in proc 0. Max # of overlaps:      13     118
New grid distribution:   1
           1       1:  108    1:  108    1:  108

InitMesh: MESH =   216 x   216 x   216 =    10077696
InitMesh: (bp) =   108 x   108 x   108 =     1259712
InitMesh: Mesh cutoff (required, used) =   300.000   322.366 Ry
ExtMesh (bp) on 0 =   188 x   188 x   188 =     6644672
PhiOnMesh: Number of (b)points on node 0 =              1259712
PhiOnMesh: nlist on node 0 =              2631213

        iscf     Eharris(eV)        E_KS(eV)     FreeEng(eV)     dDmax    Ef(eV) dHmax(eV)
   scf:    1    -1516.280298    -1515.588552    -1515.588552  0.118299 -2.795165  0.721256
   scf:    2    -1515.271652    -1515.508330    -1515.508330  0.045973 -4.843053  1.409493
   scf:    3    -1515.646922    -1515.614622    -1515.614622  0.031188 -4.938650  0.035241
   scf:    4    -1515.614889    -1515.614768    -1515.614768  0.001040 -4.940724  0.019322
   scf:    5    -1515.614867    -1515.614821    -1515.614821  0.000865 -4.939814  0.010359
   scf:    6    -1515.614845    -1515.614834    -1515.614834  0.000437 -4.938317  0.005907
   scf:    7    -1515.614841    -1515.614838    -1515.614838  0.000369 -4.937018  0.001211
   scf:    8    -1515.614838    -1515.614838    -1515.614838  0.000051 -4.936941  0.000905

SCF Convergence by DM+H criterion
max |DM_out - DM_in|         :     0.0000508538
max |H_out - H_in|      (eV) :     0.0009054306
SCF cycle converged after 8 iterations

Using DM_out to compute the final energy and forces
No. of atoms with KB's overlaping orbs in proc 0. Max # of overlaps:      13     118

siesta: E_KS(eV) =            -1515.6148

siesta: Atomic forces (eV/Ang):
----------------------------------------
   Tot   -0.033325    0.026890    0.000000
----------------------------------------
   Max    1.360950
   Res    0.500670    sqrt( Sum f_i^2 / 3N )
----------------------------------------
   Max    1.360950    constrained

Stress-tensor-Voigt (kbar):       -0.62       -0.66        0.00       -0.39        0.00       -0.00
(Free)E + p*V (eV/cell)    -1513.4919
Target enthalpy (eV/cell)    -1515.6148

                     ====================================
                        Begin Broyden opt. move =      2
                     ====================================

outcoor: Atomic coordinates (Ang):                          
    2.18756845    1.11152471   -0.00000000   1       1  C.gga
    3.40907692    1.80728976    0.00000000   1       2  C.gga
    3.42465777    3.21016227   -0.00000000   1       3  C.gga
    2.21085825    3.92815600    0.00000000   1       4  C.gga
    0.98826727    3.22891489   -0.00000000   1       5  C.gga
    0.98660515    1.82394610    0.00000000   1       6  C.gga
    1.42699891    5.77210553   -0.00000000   2       7  H.gga
    2.17834641    0.01639762    0.00000000   2       8  H.gga
    4.35484228    1.24644131    0.00000000   2       9  H.gga
    4.38767826    3.74444421    0.00000000   2      10  H.gga
    0.04867387    3.78520995   -0.00000000   2      11  H.gga
    0.02789156    1.29139040    0.00000000   2      12  H.gga
    2.28721756    5.30315226   -0.00000000   3      13  O.gga

outcell: Unit cell vectors (Ang):
       20.000000    0.000000    0.000000
        0.000000   20.000000    0.000000
        0.000000    0.000000   20.000000

outcell: Cell vector modules (Ang)   :   20.000000   20.000000   20.000000
outcell: Cell angles (23,13,12) (deg):     90.0000     90.0000     90.0000
outcell: Cell volume (Ang**3)        :   8000.0000
<dSpData1D:S at geom step 2
  <sparsity:sparsity for geom step 2
    nrows_g=121 nrows=121 sparsity=.9981 nnzs=14613, refcount: 7>
  <dData1D:(new from dSpData1D) n=14613, refcount: 1>
refcount: 1>
new_DM -- step:     3
Re-using DM from previous geometries...
Number of DMs in history: 1
 DM extrapolation coefficients: 
1   1.00000
New DM after history re-use:
<dSpData2D:SpM extrapolated using coords
  <sparsity:sparsity for geom step 2
    nrows_g=121 nrows=121 sparsity=.9981 nnzs=14613, refcount: 8>
  <dData2D:(temp array for extrapolation) n=14613 m=1, refcount: 1>
refcount: 1>
No. of atoms with KB's overlaping orbs in proc 0. Max # of overlaps:      13     118
New grid distribution:   1
           1       1:  108    1:  108    1:  108

InitMesh: MESH =   216 x   216 x   216 =    10077696
InitMesh: (bp) =   108 x   108 x   108 =     1259712
InitMesh: Mesh cutoff (required, used) =   300.000   322.366 Ry
ExtMesh (bp) on 0 =   188 x   188 x   188 =     6644672
PhiOnMesh: Number of (b)points on node 0 =              1259712
PhiOnMesh: nlist on node 0 =              2631147

        iscf     Eharris(eV)        E_KS(eV)     FreeEng(eV)     dDmax    Ef(eV) dHmax(eV)
   scf:    1    -1515.686425    -1515.659648    -1515.659648  0.020455 -2.877363  0.384866
   scf:    2    -1515.563517    -1515.636091    -1515.636091  0.029772 -3.014229  0.771746
   scf:    3    -1515.679166    -1515.668648    -1515.668648  0.019998 -2.915998  0.025853
   scf:    4    -1515.668748    -1515.668702    -1515.668702  0.000287 -2.915636  0.014433
   scf:    5    -1515.668739    -1515.668723    -1515.668723  0.000302 -2.917073  0.004544
   scf:    6    -1515.668728    -1515.668726    -1515.668726  0.000145 -2.918333  0.002004
   scf:    7    -1515.668726    -1515.668726    -1515.668726  0.000084 -2.919066  0.000478

SCF Convergence by DM+H criterion
max |DM_out - DM_in|         :     0.0000835162
max |H_out - H_in|      (eV) :     0.0004784972
SCF cycle converged after 7 iterations

Using DM_out to compute the final energy and forces
No. of atoms with KB's overlaping orbs in proc 0. Max # of overlaps:      13     118

siesta: E_KS(eV) =            -1515.6687

siesta: Atomic forces (eV/Ang):
----------------------------------------
   Tot   -0.034875    0.022942    0.000000
----------------------------------------
   Max    0.601166
   Res    0.236088    sqrt( Sum f_i^2 / 3N )
----------------------------------------
   Max    0.601166    constrained

Stress-tensor-Voigt (kbar):       -0.57       -0.32        0.00       -0.11       -0.00        0.00
(Free)E + p*V (eV/cell)    -1514.2047
Target enthalpy (eV/cell)    -1515.6687

                     ====================================
                        Begin Broyden opt. move =      3
                     ====================================

outcoor: Atomic coordinates (Ang):                          
    2.19242574    1.10463467    0.00000000   1       1  C.gga
    3.40891052    1.80732435   -0.00000000   1       2  C.gga
    3.43036743    3.21297384    0.00000000   1       3  C.gga
    2.20726136    3.93908830   -0.00000000   1       4  C.gga
    0.98832333    3.22971062    0.00000000   1       5  C.gga
    0.97919912    1.82548689   -0.00000000   1       6  C.gga
    1.42683542    5.75519798    0.00000000   2       7  H.gga
    2.17821671    0.00600061    0.00000000   2       8  H.gga
    4.36066294    1.24498430   -0.00000000   2       9  H.gga
    4.39064203    3.75071430   -0.00000000   2      10  H.gga
    0.03658403    3.79197045    0.00000000   2      11  H.gga
    0.02026272    1.28712890   -0.00000000   2      12  H.gga
    2.29804866    5.31455887   -0.00000000   3      13  O.gga

outcell: Unit cell vectors (Ang):
       20.000000    0.000000    0.000000
        0.000000   20.000000    0.000000
        0.000000    0.000000   20.000000

outcell: Cell vector modules (Ang)   :   20.000000   20.000000   20.000000
outcell: Cell angles (23,13,12) (deg):     90.0000     90.0000     90.0000
outcell: Cell volume (Ang**3)        :   8000.0000
<dSpData1D:S at geom step 3
  <sparsity:sparsity for geom step 3
    nrows_g=121 nrows=121 sparsity=.9980 nnzs=14611, refcount: 7>
  <dData1D:(new from dSpData1D) n=14611, refcount: 1>
refcount: 1>
new_DM -- step:     4
Re-using DM from previous geometries...
Number of DMs in history: 1
 DM extrapolation coefficients: 
1   1.00000
New DM after history re-use:
<dSpData2D:SpM extrapolated using coords
  <sparsity:sparsity for geom step 3
    nrows_g=121 nrows=121 sparsity=.9980 nnzs=14611, refcount: 8>
  <dData2D:(temp array for extrapolation) n=14611 m=1, refcount: 1>
refcount: 1>
No. of atoms with KB's overlaping orbs in proc 0. Max # of overlaps:      13     117
New grid distribution:   1
           1       1:  108    1:  108    1:  108

InitMesh: MESH =   216 x   216 x   216 =    10077696
InitMesh: (bp) =   108 x   108 x   108 =     1259712
InitMesh: Mesh cutoff (required, used) =   300.000   322.366 Ry
ExtMesh (bp) on 0 =   188 x   188 x   188 =     6644672
PhiOnMesh: Number of (b)points on node 0 =              1259712
PhiOnMesh: nlist on node 0 =              2631255

        iscf     Eharris(eV)        E_KS(eV)     FreeEng(eV)     dDmax    Ef(eV) dHmax(eV)
   scf:    1    -1515.872970    -1515.694730    -1515.694730  0.028050 -2.893338  0.513222
   scf:    2    -1515.618288    -1515.674562    -1515.674562  0.032476 -3.214077  1.091539
   scf:    3    -1515.707157    -1515.699681    -1515.699681  0.022227 -2.995457  0.020441
   scf:    4    -1515.699726    -1515.699705    -1515.699705  0.000359 -2.999483  0.012606
   scf:    5    -1515.699733    -1515.699720    -1515.699720  0.000611 -3.005235  0.002096
   scf:    6    -1515.699722    -1515.699721    -1515.699721  0.000124 -3.005639  0.001314
   scf:    7    -1515.699722    -1515.699721    -1515.699721  0.000116 -3.005918  0.000491
   scf:    8    -1515.699721    -1515.699721    -1515.699721  0.000037 -3.005965  0.000229

SCF Convergence by DM+H criterion
max |DM_out - DM_in|         :     0.0000365216
max |H_out - H_in|      (eV) :     0.0002288927
SCF cycle converged after 8 iterations

Using DM_out to compute the final energy and forces
No. of atoms with KB's overlaping orbs in proc 0. Max # of overlaps:      13     117

siesta: E_KS(eV) =            -1515.6997

siesta: Atomic forces (eV/Ang):
----------------------------------------
   Tot   -0.042483    0.022133   -0.000000
----------------------------------------
   Max    0.344012
   Res    0.162187    sqrt( Sum f_i^2 / 3N )
----------------------------------------
   Max    0.344012    constrained

Stress-tensor-Voigt (kbar):       -0.23       -0.08        0.00       -0.17        0.00        0.00
(Free)E + p*V (eV/cell)    -1515.1842
Target enthalpy (eV/cell)    -1515.6997

                     ====================================
                        Begin Broyden opt. move =      4
                     ====================================

outcoor: Atomic coordinates (Ang):                          
    2.18864603    1.10412446    0.00000000   1       1  C.gga
    3.41031867    1.80804881   -0.00000000   1       2  C.gga
    3.42854072    3.21555034    0.00000000   1       3  C.gga
    2.21095580    3.94127630   -0.00000000   1       4  C.gga
    0.98501340    3.23453441   -0.00000000   1       5  C.gga
    0.98197366    1.82389206    0.00000000   1       6  C.gga
    1.42458940    5.74399516    0.00000000   2       7  H.gga
    2.17850928   -0.00199156    0.00000000   2       8  H.gga
    4.36432640    1.24475235    0.00000000   2       9  H.gga
    4.39375230    3.75616846   -0.00000000   2      10  H.gga
    0.03032949    3.79529566    0.00000000   2      11  H.gga
    0.01367855    1.28395762   -0.00000000   2      12  H.gga
    2.30610463    5.32074112   -0.00000000   3      13  O.gga

outcell: Unit cell vectors (Ang):
       20.000000    0.000000    0.000000
        0.000000   20.000000    0.000000
        0.000000    0.000000   20.000000

outcell: Cell vector modules (Ang)   :   20.000000   20.000000   20.000000
outcell: Cell angles (23,13,12) (deg):     90.0000     90.0000     90.0000
outcell: Cell volume (Ang**3)        :   8000.0000
<dSpData1D:S at geom step 4
  <sparsity:sparsity for geom step 4
    nrows_g=121 nrows=121 sparsity=.9980 nnzs=14611, refcount: 7>
  <dData1D:(new from dSpData1D) n=14611, refcount: 1>
refcount: 1>
new_DM -- step:     5
Re-using DM from previous geometries...
Number of DMs in history: 1
 DM extrapolation coefficients: 
1   1.00000
New DM after history re-use:
<dSpData2D:SpM extrapolated using coords
  <sparsity:sparsity for geom step 4
    nrows_g=121 nrows=121 sparsity=.9980 nnzs=14611, refcount: 8>
  <dData2D:(temp array for extrapolation) n=14611 m=1, refcount: 1>
refcount: 1>
No. of atoms with KB's overlaping orbs in proc 0. Max # of overlaps:      13     117
New grid distribution:   1
           1       1:  108    1:  108    1:  108

InitMesh: MESH =   216 x   216 x   216 =    10077696
InitMesh: (bp) =   108 x   108 x   108 =     1259712
InitMesh: Mesh cutoff (required, used) =   300.000   322.366 Ry
ExtMesh (bp) on 0 =   188 x   188 x   188 =     6644672
PhiOnMesh: Number of (b)points on node 0 =              1259712
PhiOnMesh: nlist on node 0 =              2631249

        iscf     Eharris(eV)        E_KS(eV)     FreeEng(eV)     dDmax    Ef(eV) dHmax(eV)
   scf:    1    -1515.864845    -1515.711453    -1515.711453  0.016556 -2.954958  0.175792
   scf:    2    -1515.694154    -1515.706811    -1515.706811  0.008623 -3.074667  0.360703
   scf:    3    -1515.714073    -1515.712489    -1515.712489  0.006167 -2.993094  0.013106
   scf:    4    -1515.712503    -1515.712497    -1515.712497  0.000148 -2.994842  0.008287
   scf:    5    -1515.712503    -1515.712500    -1515.712500  0.000180 -2.996233  0.002811
   scf:    6    -1515.712501    -1515.712501    -1515.712501  0.000075 -2.996427  0.001286
   scf:    7    -1515.712501    -1515.712501    -1515.712501  0.000085 -2.996606  0.000315

SCF Convergence by DM+H criterion
max |DM_out - DM_in|         :     0.0000854576
max |H_out - H_in|      (eV) :     0.0003151567
SCF cycle converged after 7 iterations

Using DM_out to compute the final energy and forces
No. of atoms with KB's overlaping orbs in proc 0. Max # of overlaps:      13     117

siesta: E_KS(eV) =            -1515.7125

siesta: Atomic forces (eV/Ang):
----------------------------------------
   Tot   -0.031261    0.011736   -0.000000
----------------------------------------
   Max    0.282801
   Res    0.075124    sqrt( Sum f_i^2 / 3N )
----------------------------------------
   Max    0.282801    constrained

Stress-tensor-Voigt (kbar):       -0.10        0.12        0.00       -0.04       -0.00        0.00
(Free)E + p*V (eV/cell)    -1515.7544
Target enthalpy (eV/cell)    -1515.7125

                     ====================================
                        Begin Broyden opt. move =      5
                     ====================================

outcoor: Atomic coordinates (Ang):                          
    2.18895053    1.10129952    0.00000000   1       1  C.gga
    3.41021991    1.80839841   -0.00000000   1       2  C.gga
    3.43041519    3.21611701    0.00000000   1       3  C.gga
    2.21220784    3.94223604   -0.00000000   1       4  C.gga
    0.98398148    3.23862661   -0.00000000   1       5  C.gga
    0.97864742    1.82509733    0.00000000   1       6  C.gga
    1.42298005    5.73500421    0.00000000   2       7  H.gga
    2.17869461   -0.00477862    0.00000000   2       8  H.gga
    4.36602419    1.24588821    0.00000000   2       9  H.gga
    4.39393391    3.76002679   -0.00000000   2      10  H.gga
    0.02702586    3.79697664   -0.00000000   2      11  H.gga
    0.01204739    1.28361692   -0.00000000   2      12  H.gga
    2.31068418    5.32223876   -0.00000000   3      13  O.gga

outcell: Unit cell vectors (Ang):
       20.000000    0.000000    0.000000
        0.000000   20.000000    0.000000
        0.000000    0.000000   20.000000

outcell: Cell vector modules (Ang)   :   20.000000   20.000000   20.000000
outcell: Cell angles (23,13,12) (deg):     90.0000     90.0000     90.0000
outcell: Cell volume (Ang**3)        :   8000.0000
<dSpData1D:S at geom step 5
  <sparsity:sparsity for geom step 5
    nrows_g=121 nrows=121 sparsity=.9980 nnzs=14611, refcount: 7>
  <dData1D:(new from dSpData1D) n=14611, refcount: 1>
refcount: 1>
new_DM -- step:     6
Re-using DM from previous geometries...
Number of DMs in history: 1
 DM extrapolation coefficients: 
1   1.00000
New DM after history re-use:
<dSpData2D:SpM extrapolated using coords
  <sparsity:sparsity for geom step 5
    nrows_g=121 nrows=121 sparsity=.9980 nnzs=14611, refcount: 8>
  <dData2D:(temp array for extrapolation) n=14611 m=1, refcount: 1>
refcount: 1>
No. of atoms with KB's overlaping orbs in proc 0. Max # of overlaps:      13     117
New grid distribution:   1
           1       1:  108    1:  108    1:  108

InitMesh: MESH =   216 x   216 x   216 =    10077696
InitMesh: (bp) =   108 x   108 x   108 =     1259712
InitMesh: Mesh cutoff (required, used) =   300.000   322.366 Ry
ExtMesh (bp) on 0 =   188 x   188 x   188 =     6644672
PhiOnMesh: Number of (b)points on node 0 =              1259712
PhiOnMesh: nlist on node 0 =              2631345

        iscf     Eharris(eV)        E_KS(eV)     FreeEng(eV)     dDmax    Ef(eV) dHmax(eV)
   scf:    1    -1515.785136    -1515.716423    -1515.716423  0.009568 -2.995044  0.091269
   scf:    2    -1515.708674    -1515.714289    -1515.714289  0.006066 -3.052326  0.218225
   scf:    3    -1515.717478    -1515.716809    -1515.716809  0.004409 -3.011194  0.005906
   scf:    4    -1515.716815    -1515.716812    -1515.716812  0.000088 -3.011602  0.003669
   scf:    5    -1515.716816    -1515.716814    -1515.716814  0.000166 -3.012238  0.000868
   scf:    6    -1515.716815    -1515.716815    -1515.716815  0.000036 -3.012321  0.000556

SCF Convergence by DM+H criterion
max |DM_out - DM_in|         :     0.0000363882
max |H_out - H_in|      (eV) :     0.0005558425
SCF cycle converged after 6 iterations

Using DM_out to compute the final energy and forces
No. of atoms with KB's overlaping orbs in proc 0. Max # of overlaps:      13     117

siesta: E_KS(eV) =            -1515.7168

siesta: Atomic forces (eV/Ang):
----------------------------------------
   Tot   -0.021347    0.008364   -0.000000
----------------------------------------
   Max    0.239133
   Res    0.051228    sqrt( Sum f_i^2 / 3N )
----------------------------------------
   Max    0.239133    constrained

Stress-tensor-Voigt (kbar):       -0.01        0.19        0.00       -0.04        0.00       -0.00
(Free)E + p*V (eV/cell)    -1516.0236
Target enthalpy (eV/cell)    -1515.7168

                     ====================================
                        Begin Broyden opt. move =      6
                     ====================================

outcoor: Atomic coordinates (Ang):                          
    2.18752207    1.10185046    0.00000000   1       1  C.gga
    3.41026128    1.80765296   -0.00000000   1       2  C.gga
    3.43157666    3.21597286   -0.00000000   1       3  C.gga
    2.21384290    3.94253892    0.00000000   1       4  C.gga
    0.98353950    3.23946706   -0.00000000   1       5  C.gga
    0.97839423    1.82686361    0.00000000   1       6  C.gga
    1.42281124    5.72817850   -0.00000000   2       7  H.gga
    2.17883757   -0.00585455   -0.00000000   2       8  H.gga
    4.36640602    1.24752057    0.00000000   2       9  H.gga
    4.39336620    3.76274264   -0.00000000   2      10  H.gga
    0.02547047    3.79819983   -0.00000000   2      11  H.gga
    0.01133704    1.28415675   -0.00000000   2      12  H.gga
    2.31180269    5.32171941   -0.00000000   3      13  O.gga

outcell: Unit cell vectors (Ang):
       20.000000    0.000000    0.000000
        0.000000   20.000000    0.000000
        0.000000    0.000000   20.000000

outcell: Cell vector modules (Ang)   :   20.000000   20.000000   20.000000
outcell: Cell angles (23,13,12) (deg):     90.0000     90.0000     90.0000
outcell: Cell volume (Ang**3)        :   8000.0000
<dSpData1D:S at geom step 6
  <sparsity:sparsity for geom step 6
    nrows_g=121 nrows=121 sparsity=.9980 nnzs=14611, refcount: 7>
  <dData1D:(new from dSpData1D) n=14611, refcount: 1>
refcount: 1>
new_DM -- step:     7
Re-using DM from previous geometries...
Number of DMs in history: 1
 DM extrapolation coefficients: 
1   1.00000
New DM after history re-use:
<dSpData2D:SpM extrapolated using coords
  <sparsity:sparsity for geom step 6
    nrows_g=121 nrows=121 sparsity=.9980 nnzs=14611, refcount: 8>
  <dData2D:(temp array for extrapolation) n=14611 m=1, refcount: 1>
refcount: 1>
No. of atoms with KB's overlaping orbs in proc 0. Max # of overlaps:      13     117
New grid distribution:   1
           1       1:  108    1:  108    1:  108

InitMesh: MESH =   216 x   216 x   216 =    10077696
InitMesh: (bp) =   108 x   108 x   108 =     1259712
InitMesh: Mesh cutoff (required, used) =   300.000   322.366 Ry
ExtMesh (bp) on 0 =   188 x   188 x   188 =     6644672
PhiOnMesh: Number of (b)points on node 0 =              1259712
PhiOnMesh: nlist on node 0 =              2631200

        iscf     Eharris(eV)        E_KS(eV)     FreeEng(eV)     dDmax    Ef(eV) dHmax(eV)
   scf:    1    -1515.713086    -1515.718908    -1515.718908  0.005755 -3.019598  0.067591
   scf:    2    -1515.717018    -1515.718399    -1515.718399  0.004918 -3.063946  0.150861
   scf:    3    -1515.719192    -1515.719018    -1515.719018  0.003423 -3.033372  0.003332
   scf:    4    -1515.719020    -1515.719020    -1515.719020  0.000069 -3.034044  0.001980
   scf:    5    -1515.719021    -1515.719020    -1515.719020  0.000117 -3.034892  0.000413
   scf:    6    -1515.719020    -1515.719020    -1515.719020  0.000021 -3.034944  0.000222

SCF Convergence by DM+H criterion
max |DM_out - DM_in|         :     0.0000208851
max |H_out - H_in|      (eV) :     0.0002220207
SCF cycle converged after 6 iterations

Using DM_out to compute the final energy and forces
No. of atoms with KB's overlaping orbs in proc 0. Max # of overlaps:      13     117

siesta: E_KS(eV) =            -1515.7190

siesta: Atomic forces (eV/Ang):
----------------------------------------
   Tot   -0.019962    0.010257    0.000000
----------------------------------------
   Max    0.181436
   Res    0.039448    sqrt( Sum f_i^2 / 3N )
----------------------------------------
   Max    0.181436    constrained

Stress-tensor-Voigt (kbar):        0.00        0.19        0.00       -0.02       -0.00        0.00
(Free)E + p*V (eV/cell)    -1516.0429
Target enthalpy (eV/cell)    -1515.7190

                     ====================================
                        Begin Broyden opt. move =      7
                     ====================================

outcoor: Atomic coordinates (Ang):                          
    2.18623757    1.10271171   -0.00000000   1       1  C.gga
    3.40925172    1.80729158    0.00000000   1       2  C.gga
    3.43268280    3.21498982    0.00000000   1       3  C.gga
    2.21593886    3.94091438   -0.00000000   1       4  C.gga
    0.98378705    3.24214905   -0.00000000   1       5  C.gga
    0.97727056    1.82875116    0.00000000   1       6  C.gga
    1.42121349    5.71678184    0.00000000   2       7  H.gga
    2.17863484   -0.00540285   -0.00000000   2       8  H.gga
    4.36723978    1.25007806    0.00000000   2       9  H.gga
    4.39231357    3.76744206   -0.00000000   2      10  H.gga
    0.02425586    3.80006270    0.00000000   2      11  H.gga
    0.01112576    1.28642564   -0.00000000   2      12  H.gga
    2.31403239    5.31937489   -0.00000000   3      13  O.gga

outcell: Unit cell vectors (Ang):
       20.000000    0.000000    0.000000
        0.000000   20.000000    0.000000
        0.000000    0.000000   20.000000

outcell: Cell vector modules (Ang)   :   20.000000   20.000000   20.000000
outcell: Cell angles (23,13,12) (deg):     90.0000     90.0000     90.0000
outcell: Cell volume (Ang**3)        :   8000.0000
<dSpData1D:S at geom step 7
  <sparsity:sparsity for geom step 7
    nrows_g=121 nrows=121 sparsity=.9980 nnzs=14611, refcount: 7>
  <dData1D:(new from dSpData1D) n=14611, refcount: 1>
refcount: 1>
new_DM -- step:     8
Re-using DM from previous geometries...
Number of DMs in history: 1
 DM extrapolation coefficients: 
1   1.00000
New DM after history re-use:
<dSpData2D:SpM extrapolated using coords
  <sparsity:sparsity for geom step 7
    nrows_g=121 nrows=121 sparsity=.9980 nnzs=14611, refcount: 8>
  <dData2D:(temp array for extrapolation) n=14611 m=1, refcount: 1>
refcount: 1>
No. of atoms with KB's overlaping orbs in proc 0. Max # of overlaps:      13     117
New grid distribution:   1
           1       1:  108    1:  108    1:  108

InitMesh: MESH =   216 x   216 x   216 =    10077696
InitMesh: (bp) =   108 x   108 x   108 =     1259712
InitMesh: Mesh cutoff (required, used) =   300.000   322.366 Ry
ExtMesh (bp) on 0 =   188 x   188 x   188 =     6644672
PhiOnMesh: Number of (b)points on node 0 =              1259712
PhiOnMesh: nlist on node 0 =              2631219

        iscf     Eharris(eV)        E_KS(eV)     FreeEng(eV)     dDmax    Ef(eV) dHmax(eV)
   scf:    1    -1515.715645    -1515.721736    -1515.721736  0.007897 -3.047051  0.027681
   scf:    2    -1515.720872    -1515.721513    -1515.721513  0.001327 -3.060552  0.066062
   scf:    3    -1515.721878    -1515.721802    -1515.721802  0.000977 -3.050774  0.005645
   scf:    4    -1515.721806    -1515.721804    -1515.721804  0.000100 -3.050822  0.003206
   scf:    5    -1515.721807    -1515.721806    -1515.721806  0.000130 -3.050880  0.000633
   scf:    6    -1515.721806    -1515.721806    -1515.721806  0.000029 -3.050882  0.000370

SCF Convergence by DM+H criterion
max |DM_out - DM_in|         :     0.0000290528
max |H_out - H_in|      (eV) :     0.0003701692
SCF cycle converged after 6 iterations

Using DM_out to compute the final energy and forces
No. of atoms with KB's overlaping orbs in proc 0. Max # of overlaps:      13     117

siesta: E_KS(eV) =            -1515.7218

siesta: Atomic forces (eV/Ang):
----------------------------------------
   Tot   -0.013261    0.016383    0.000000
----------------------------------------
   Max    0.130723
   Res    0.029511    sqrt( Sum f_i^2 / 3N )
----------------------------------------
   Max    0.130723    constrained

Stress-tensor-Voigt (kbar):        0.00        0.15        0.00       -0.01       -0.00       -0.00
(Free)E + p*V (eV/cell)    -1515.9937
Target enthalpy (eV/cell)    -1515.7218

                     ====================================
                        Begin Broyden opt. move =      8
                     ====================================

outcoor: Atomic coordinates (Ang):                          
    2.18533050    1.10302421   -0.00000000   1       1  C.gga
    3.40949467    1.80730629    0.00000000   1       2  C.gga
    3.43368684    3.21469633    0.00000000   1       3  C.gga
    2.21695875    3.93975187   -0.00000000   1       4  C.gga
    0.98359259    3.24286560   -0.00000000   1       5  C.gga
    0.97714951    1.83053941   -0.00000000   1       6  C.gga
    1.41982471    5.70956414    0.00000000   2       7  H.gga
    2.17821000   -0.00428997   -0.00000000   2       8  H.gga
    4.36753104    1.25151348   -0.00000000   2       9  H.gga
    4.39119966    3.77000472   -0.00000000   2      10  H.gga
    0.02440993    3.80133830   -0.00000000   2      11  H.gga
    0.01060674    1.28812243    0.00000000   2      12  H.gga
    2.31523895    5.31769248    0.00000000   3      13  O.gga

outcell: Unit cell vectors (Ang):
       20.000000    0.000000    0.000000
        0.000000   20.000000    0.000000
        0.000000    0.000000   20.000000

outcell: Cell vector modules (Ang)   :   20.000000   20.000000   20.000000
outcell: Cell angles (23,13,12) (deg):     90.0000     90.0000     90.0000
outcell: Cell volume (Ang**3)        :   8000.0000
<dSpData1D:S at geom step 8
  <sparsity:sparsity for geom step 8
    nrows_g=121 nrows=121 sparsity=.9980 nnzs=14611, refcount: 7>
  <dData1D:(new from dSpData1D) n=14611, refcount: 1>
refcount: 1>
new_DM -- step:     9
Re-using DM from previous geometries...
Number of DMs in history: 1
 DM extrapolation coefficients: 
1   1.00000
New DM after history re-use:
<dSpData2D:SpM extrapolated using coords
  <sparsity:sparsity for geom step 8
    nrows_g=121 nrows=121 sparsity=.9980 nnzs=14611, refcount: 8>
  <dData2D:(temp array for extrapolation) n=14611 m=1, refcount: 1>
refcount: 1>
No. of atoms with KB's overlaping orbs in proc 0. Max # of overlaps:      13     117
New grid distribution:   1
           1       1:  108    1:  108    1:  108

InitMesh: MESH =   216 x   216 x   216 =    10077696
InitMesh: (bp) =   108 x   108 x   108 =     1259712
InitMesh: Mesh cutoff (required, used) =   300.000   322.366 Ry
ExtMesh (bp) on 0 =   188 x   188 x   188 =     6644672
PhiOnMesh: Number of (b)points on node 0 =              1259712
PhiOnMesh: nlist on node 0 =              2631065

        iscf     Eharris(eV)        E_KS(eV)     FreeEng(eV)     dDmax    Ef(eV) dHmax(eV)
   scf:    1    -1515.716618    -1515.723068    -1515.723068  0.004948 -3.062582  0.013267
   scf:    2    -1515.722897    -1515.723028    -1515.723028  0.001076 -3.060172  0.027847
   scf:    3    -1515.723105    -1515.723089    -1515.723089  0.000625 -3.061384  0.003416
   scf:    4    -1515.723090    -1515.723090    -1515.723090  0.000072 -3.061261  0.001867
   scf:    5    -1515.723090    -1515.723090    -1515.723090  0.000087 -3.061166  0.000401

SCF Convergence by DM+H criterion
max |DM_out - DM_in|         :     0.0000865388
max |H_out - H_in|      (eV) :     0.0004012612
SCF cycle converged after 5 iterations

Using DM_out to compute the final energy and forces
No. of atoms with KB's overlaping orbs in proc 0. Max # of overlaps:      13     117

siesta: E_KS(eV) =            -1515.7231

siesta: Atomic forces (eV/Ang):
----------------------------------------
   Tot   -0.011036    0.019681    0.000000
----------------------------------------
   Max    0.102914
   Res    0.023689    sqrt( Sum f_i^2 / 3N )
----------------------------------------
   Max    0.102914    constrained

Stress-tensor-Voigt (kbar):        0.01        0.11        0.00        0.01       -0.00        0.00
(Free)E + p*V (eV/cell)    -1515.9397
Target enthalpy (eV/cell)    -1515.7231

                     ====================================
                        Begin Broyden opt. move =      9
                     ====================================

outcoor: Atomic coordinates (Ang):                          
    2.18533254    1.10441976   -0.00000000   1       1  C.gga
    3.40956832    1.80723348    0.00000000   1       2  C.gga
    3.43427993    3.21449228    0.00000000   1       3  C.gga
    2.21775351    3.93845228   -0.00000000   1       4  C.gga
    0.98374227    3.24356177   -0.00000000   1       5  C.gga
    0.97683656    1.83126033   -0.00000000   1       6  C.gga
    1.41851614    5.70279962    0.00000000   2       7  H.gga
    2.17742408   -0.00308912   -0.00000000   2       8  H.gga
    4.36796688    1.25239805   -0.00000000   2       9  H.gga
    4.39019245    3.77220522   -0.00000000   2      10  H.gga
    0.02523685    3.80273530   -0.00000000   2      11  H.gga
    0.01016325    1.29025296    0.00000000   2      12  H.gga
    2.31550755    5.31617765    0.00000001   3      13  O.gga

outcell: Unit cell vectors (Ang):
       20.000000    0.000000    0.000000
        0.000000   20.000000    0.000000
        0.000000    0.000000   20.000000

outcell: Cell vector modules (Ang)   :   20.000000   20.000000   20.000000
outcell: Cell angles (23,13,12) (deg):     90.0000     90.0000     90.0000
outcell: Cell volume (Ang**3)        :   8000.0000
<dSpData1D:S at geom step 9
  <sparsity:sparsity for geom step 9
    nrows_g=121 nrows=121 sparsity=.9980 nnzs=14611, refcount: 7>
  <dData1D:(new from dSpData1D) n=14611, refcount: 1>
refcount: 1>
new_DM -- step:    10
Re-using DM from previous geometries...
Number of DMs in history: 1
 DM extrapolation coefficients: 
1   1.00000
New DM after history re-use:
<dSpData2D:SpM extrapolated using coords
  <sparsity:sparsity for geom step 9
    nrows_g=121 nrows=121 sparsity=.9980 nnzs=14611, refcount: 8>
  <dData2D:(temp array for extrapolation) n=14611 m=1, refcount: 1>
refcount: 1>
No. of atoms with KB's overlaping orbs in proc 0. Max # of overlaps:      13     117
New grid distribution:   1
           1       1:  108    1:  108    1:  108

InitMesh: MESH =   216 x   216 x   216 =    10077696
InitMesh: (bp) =   108 x   108 x   108 =     1259712
InitMesh: Mesh cutoff (required, used) =   300.000   322.366 Ry
ExtMesh (bp) on 0 =   188 x   188 x   188 =     6644672
PhiOnMesh: Number of (b)points on node 0 =              1259712
PhiOnMesh: nlist on node 0 =              2630974

        iscf     Eharris(eV)        E_KS(eV)     FreeEng(eV)     dDmax    Ef(eV) dHmax(eV)
   scf:    1    -1515.709268    -1515.724025    -1515.724025  0.004517 -3.070160  0.015068
   scf:    2    -1515.723928    -1515.724003    -1515.724003  0.000864 -3.065110  0.020946
   scf:    3    -1515.724048    -1515.724038    -1515.724038  0.000500 -3.068259  0.002164
   scf:    4    -1515.724039    -1515.724038    -1515.724038  0.000046 -3.068187  0.001152
   scf:    5    -1515.724039    -1515.724039    -1515.724039  0.000064 -3.068108  0.000245

SCF Convergence by DM+H criterion
max |DM_out - DM_in|         :     0.0000637929
max |H_out - H_in|      (eV) :     0.0002451933
SCF cycle converged after 5 iterations

Using DM_out to compute the final energy and forces
No. of atoms with KB's overlaping orbs in proc 0. Max # of overlaps:      13     117

siesta: E_KS(eV) =            -1515.7240

siesta: Atomic forces (eV/Ang):
----------------------------------------
   Tot   -0.009850    0.023327    0.000000
----------------------------------------
   Max    0.066099
   Res    0.018690    sqrt( Sum f_i^2 / 3N )
----------------------------------------
   Max    0.066099    constrained

Stress-tensor-Voigt (kbar):       -0.01        0.08        0.00        0.01        0.00       -0.00
(Free)E + p*V (eV/cell)    -1515.8553
Target enthalpy (eV/cell)    -1515.7240

                     ====================================
                        Begin Broyden opt. move =     10
                     ====================================

outcoor: Atomic coordinates (Ang):                          
    2.18539262    1.10535090   -0.00000000   1       1  C.gga
    3.41020728    1.80772485    0.00000000   1       2  C.gga
    3.43461587    3.21413370   -0.00000000   1       3  C.gga
    2.21830697    3.93760244   -0.00000000   1       4  C.gga
    0.98429408    3.24349562   -0.00000000   1       5  C.gga
    0.97673488    1.83203888   -0.00000000   1       6  C.gga
    1.41665077    5.69738859    0.00000000   2       7  H.gga
    2.17645928   -0.00171279   -0.00000000   2       8  H.gga
    4.36852823    1.25256776   -0.00000000   2       9  H.gga
    4.38956645    3.77394321   -0.00000000   2      10  H.gga
    0.02629904    3.80435644   -0.00000000   2      11  H.gga
    0.00940195    1.29218597    0.00000000   2      12  H.gga
    2.31540897    5.31483866    0.00000001   3      13  O.gga

outcell: Unit cell vectors (Ang):
       20.000000    0.000000    0.000000
        0.000000   20.000000    0.000000
        0.000000    0.000000   20.000000

outcell: Cell vector modules (Ang)   :   20.000000   20.000000   20.000000
outcell: Cell angles (23,13,12) (deg):     90.0000     90.0000     90.0000
outcell: Cell volume (Ang**3)        :   8000.0000
<dSpData1D:S at geom step 10
  <sparsity:sparsity for geom step 10
    nrows_g=121 nrows=121 sparsity=.9980 nnzs=14611, refcount: 7>
  <dData1D:(new from dSpData1D) n=14611, refcount: 1>
refcount: 1>
new_DM -- step:    11
Re-using DM from previous geometries...
Number of DMs in history: 1
 DM extrapolation coefficients: 
1   1.00000
New DM after history re-use:
<dSpData2D:SpM extrapolated using coords
  <sparsity:sparsity for geom step 10
    nrows_g=121 nrows=121 sparsity=.9980 nnzs=14611, refcount: 8>
  <dData2D:(temp array for extrapolation) n=14611 m=1, refcount: 1>
refcount: 1>
No. of atoms with KB's overlaping orbs in proc 0. Max # of overlaps:      13     117
New grid distribution:   1
           1       1:  108    1:  108    1:  108

InitMesh: MESH =   216 x   216 x   216 =    10077696
InitMesh: (bp) =   108 x   108 x   108 =     1259712
InitMesh: Mesh cutoff (required, used) =   300.000   322.366 Ry
ExtMesh (bp) on 0 =   188 x   188 x   188 =     6644672
PhiOnMesh: Number of (b)points on node 0 =              1259712
PhiOnMesh: nlist on node 0 =              2630897

        iscf     Eharris(eV)        E_KS(eV)     FreeEng(eV)     dDmax    Ef(eV) dHmax(eV)
   scf:    1    -1515.713536    -1515.724668    -1515.724668  0.003647 -3.073753  0.013830
   scf:    2    -1515.724499    -1515.724626    -1515.724626  0.000665 -3.076271  0.034528
   scf:    3    -1515.724699    -1515.724683    -1515.724683  0.000400 -3.074377  0.002825
   scf:    4    -1515.724684    -1515.724684    -1515.724684  0.000042 -3.074401  0.001599
   scf:    5    -1515.724684    -1515.724684    -1515.724684  0.000052 -3.074437  0.000294

SCF Convergence by DM+H criterion
max |DM_out - DM_in|         :     0.0000522203
max |H_out - H_in|      (eV) :     0.0002940021
SCF cycle converged after 5 iterations

Using DM_out to compute the final energy and forces
No. of atoms with KB's overlaping orbs in proc 0. Max # of overlaps:      13     117

siesta: E_KS(eV) =            -1515.7247

siesta: Atomic forces (eV/Ang):
----------------------------------------
   Tot   -0.011187    0.025827   -0.000000
----------------------------------------
   Max    0.046834
   Res    0.016236    sqrt( Sum f_i^2 / 3N )
----------------------------------------
   Max    0.046834    constrained

Stress-tensor-Voigt (kbar):       -0.00        0.04        0.00        0.02       -0.00        0.00
(Free)E + p*V (eV/cell)    -1515.7928
Target enthalpy (eV/cell)    -1515.7247

                     ====================================
                        Begin Broyden opt. move =     11
                     ====================================

outcoor: Atomic coordinates (Ang):                          
    2.18546484    1.10610355   -0.00000000   1       1  C.gga
    3.41084794    1.80765044    0.00000000   1       2  C.gga
    3.43511575    3.21447326   -0.00000000   1       3  C.gga
    2.21881472    3.93688275    0.00000000   1       4  C.gga
    0.98447229    3.24383696   -0.00000000   1       5  C.gga
    0.97681040    1.83223171   -0.00000000   1       6  C.gga
    1.41491333    5.69354287    0.00000000   2       7  H.gga
    2.17562030   -0.00069948   -0.00000000   2       8  H.gga
    4.36897752    1.25245139   -0.00000000   2       9  H.gga
    4.38911876    3.77505624   -0.00000000   2      10  H.gga
    0.02752552    3.80563462   -0.00000000   2      11  H.gga
    0.00867982    1.29367981    0.00000000   2      12  H.gga
    2.31494050    5.31408078    0.00000001   3      13  O.gga

outcell: Unit cell vectors (Ang):
       20.000000    0.000000    0.000000
        0.000000   20.000000    0.000000
        0.000000    0.000000   20.000000

outcell: Cell vector modules (Ang)   :   20.000000   20.000000   20.000000
outcell: Cell angles (23,13,12) (deg):     90.0000     90.0000     90.0000
outcell: Cell volume (Ang**3)        :   8000.0000
<dSpData1D:S at geom step 11
  <sparsity:sparsity for geom step 11
    nrows_g=121 nrows=121 sparsity=.9980 nnzs=14611, refcount: 7>
  <dData1D:(new from dSpData1D) n=14611, refcount: 1>
refcount: 1>
new_DM -- step:    12
Re-using DM from previous geometries...
Number of DMs in history: 1
 DM extrapolation coefficients: 
1   1.00000
New DM after history re-use:
<dSpData2D:SpM extrapolated using coords
  <sparsity:sparsity for geom step 11
    nrows_g=121 nrows=121 sparsity=.9980 nnzs=14611, refcount: 8>
  <dData2D:(temp array for extrapolation) n=14611 m=1, refcount: 1>
refcount: 1>
No. of atoms with KB's overlaping orbs in proc 0. Max # of overlaps:      13     117
New grid distribution:   1
           1       1:  108    1:  108    1:  108

InitMesh: MESH =   216 x   216 x   216 =    10077696
InitMesh: (bp) =   108 x   108 x   108 =     1259712
InitMesh: Mesh cutoff (required, used) =   300.000   322.366 Ry
ExtMesh (bp) on 0 =   188 x   188 x   188 =     6644672
PhiOnMesh: Number of (b)points on node 0 =              1259712
PhiOnMesh: nlist on node 0 =              2631030

        iscf     Eharris(eV)        E_KS(eV)     FreeEng(eV)     dDmax    Ef(eV) dHmax(eV)
   scf:    1    -1515.720880    -1515.725078    -1515.725078  0.002576 -3.078412  0.010495
   scf:    2    -1515.724991    -1515.725057    -1515.725057  0.000550 -3.074746  0.016260
   scf:    3    -1515.725096    -1515.725087    -1515.725087  0.000331 -3.076975  0.001639
   scf:    4    -1515.725087    -1515.725087    -1515.725087  0.000027 -3.076889  0.000888

SCF Convergence by DM+H criterion
max |DM_out - DM_in|         :     0.0000274837
max |H_out - H_in|      (eV) :     0.0008884029
SCF cycle converged after 4 iterations

Using DM_out to compute the final energy and forces
No. of atoms with KB's overlaping orbs in proc 0. Max # of overlaps:      13     117

siesta: E_KS(eV) =            -1515.7251

siesta: Atomic forces (eV/Ang):
----------------------------------------
   Tot   -0.012984    0.027290   -0.000000
----------------------------------------
   Max    0.038968
   Res    0.013569    sqrt( Sum f_i^2 / 3N )
----------------------------------------
   Max    0.038968    constrained

Stress-tensor-Voigt (kbar):       -0.01        0.03        0.00        0.02       -0.00        0.00
(Free)E + p*V (eV/cell)    -1515.7615
Target enthalpy (eV/cell)    -1515.7251

                     ====================================
                        Begin Broyden opt. move =     12
                     ====================================

outcoor: Atomic coordinates (Ang):                          
    2.18576533    1.10643753    0.00000000   1       1  C.gga
    3.41116469    1.80771653   -0.00000000   1       2  C.gga
    3.43564855    3.21443558   -0.00000000   1       3  C.gga
    2.21899789    3.93671064   -0.00000000   1       4  C.gga
    0.98476394    3.24383380   -0.00000000   1       5  C.gga
    0.97662748    1.83257625   -0.00000000   1       6  C.gga
    1.41359980    5.69150079    0.00000001   2       7  H.gga
    2.17505758   -0.00022280   -0.00000000   2       8  H.gga
    4.36933566    1.25211774   -0.00000000   2       9  H.gga
    4.38908566    3.77567972   -0.00000000   2      10  H.gga
    0.02835766    3.80657636   -0.00000000   2      11  H.gga
    0.00823998    1.29455100    0.00000000   2      12  H.gga
    2.31422124    5.31385896   -0.00000000   3      13  O.gga

outcell: Unit cell vectors (Ang):
       20.000000    0.000000    0.000000
        0.000000   20.000000    0.000000
        0.000000    0.000000   20.000000

outcell: Cell vector modules (Ang)   :   20.000000   20.000000   20.000000
outcell: Cell angles (23,13,12) (deg):     90.0000     90.0000     90.0000
outcell: Cell volume (Ang**3)        :   8000.0000
<dSpData1D:S at geom step 12
  <sparsity:sparsity for geom step 12
    nrows_g=121 nrows=121 sparsity=.9980 nnzs=14611, refcount: 7>
  <dData1D:(new from dSpData1D) n=14611, refcount: 1>
refcount: 1>
new_DM -- step:    13
Re-using DM from previous geometries...
Number of DMs in history: 1
 DM extrapolation coefficients: 
1   1.00000
New DM after history re-use:
<dSpData2D:SpM extrapolated using coords
  <sparsity:sparsity for geom step 12
    nrows_g=121 nrows=121 sparsity=.9980 nnzs=14611, refcount: 8>
  <dData2D:(temp array for extrapolation) n=14611 m=1, refcount: 1>
refcount: 1>
No. of atoms with KB's overlaping orbs in proc 0. Max # of overlaps:      13     117
New grid distribution:   1
           1       1:  108    1:  108    1:  108

InitMesh: MESH =   216 x   216 x   216 =    10077696
InitMesh: (bp) =   108 x   108 x   108 =     1259712
InitMesh: Mesh cutoff (required, used) =   300.000   322.366 Ry
ExtMesh (bp) on 0 =   188 x   188 x   188 =     6644672
PhiOnMesh: Number of (b)points on node 0 =              1259712
PhiOnMesh: nlist on node 0 =              2631083

        iscf     Eharris(eV)        E_KS(eV)     FreeEng(eV)     dDmax    Ef(eV) dHmax(eV)
   scf:    1    -1515.722632    -1515.725313    -1515.725313  0.001493 -3.078375  0.007001
   scf:    2    -1515.725252    -1515.725296    -1515.725296  0.000390 -3.082511  0.017810
   scf:    3    -1515.725321    -1515.725316    -1515.725316  0.000281 -3.079624  0.000923
   scf:    4    -1515.725316    -1515.725316    -1515.725316  0.000014 -3.079712  0.000544

SCF Convergence by DM+H criterion
max |DM_out - DM_in|         :     0.0000139199
max |H_out - H_in|      (eV) :     0.0005444054
SCF cycle converged after 4 iterations

Using DM_out to compute the final energy and forces
No. of atoms with KB's overlaping orbs in proc 0. Max # of overlaps:      13     117

siesta: E_KS(eV) =            -1515.7253

siesta: Atomic forces (eV/Ang):
----------------------------------------
   Tot   -0.014403    0.027296    0.000000
----------------------------------------
   Max    0.043837
   Res    0.012301    sqrt( Sum f_i^2 / 3N )
----------------------------------------
   Max    0.043837    constrained

Stress-tensor-Voigt (kbar):       -0.01        0.02        0.00        0.02       -0.00        0.00
(Free)E + p*V (eV/cell)    -1515.7536
Target enthalpy (eV/cell)    -1515.7253

                     ====================================
                        Begin Broyden opt. move =     13
                     ====================================

outcoor: Atomic coordinates (Ang):                          
    2.18576745    1.10687514    0.00000000   1       1  C.gga
    3.41174829    1.80768360   -0.00000000   1       2  C.gga
    3.43603067    3.21454311   -0.00000000   1       3  C.gga
    2.21949813    3.93660587   -0.00000000   1       4  C.gga
    0.98510652    3.24390691   -0.00000000   1       5  C.gga
    0.97668987    1.83278273   -0.00000000   1       6  C.gga
    1.41175193    5.68962077    0.00000001   2       7  H.gga
    2.17443619    0.00006411   -0.00000000   2       8  H.gga
    4.36968765    1.25156269    0.00000000   2       9  H.gga
    4.38940195    3.77631586    0.00000000   2      10  H.gga
    0.02935595    3.80775318   -0.00000000   2      11  H.gga
    0.00769196    1.29542158    0.00000000   2      12  H.gga
    2.31309467    5.31381789   -0.00000000   3      13  O.gga

outcell: Unit cell vectors (Ang):
       20.000000    0.000000    0.000000
        0.000000   20.000000    0.000000
        0.000000    0.000000   20.000000

outcell: Cell vector modules (Ang)   :   20.000000   20.000000   20.000000
outcell: Cell angles (23,13,12) (deg):     90.0000     90.0000     90.0000
outcell: Cell volume (Ang**3)        :   8000.0000
<dSpData1D:S at geom step 13
  <sparsity:sparsity for geom step 13
    nrows_g=121 nrows=121 sparsity=.9980 nnzs=14611, refcount: 7>
  <dData1D:(new from dSpData1D) n=14611, refcount: 1>
refcount: 1>
new_DM -- step:    14
Re-using DM from previous geometries...
Number of DMs in history: 1
 DM extrapolation coefficients: 
1   1.00000
New DM after history re-use:
<dSpData2D:SpM extrapolated using coords
  <sparsity:sparsity for geom step 13
    nrows_g=121 nrows=121 sparsity=.9980 nnzs=14611, refcount: 8>
  <dData2D:(temp array for extrapolation) n=14611 m=1, refcount: 1>
refcount: 1>
No. of atoms with KB's overlaping orbs in proc 0. Max # of overlaps:      13     117
New grid distribution:   1
           1       1:  108    1:  108    1:  108

InitMesh: MESH =   216 x   216 x   216 =    10077696
InitMesh: (bp) =   108 x   108 x   108 =     1259712
InitMesh: Mesh cutoff (required, used) =   300.000   322.366 Ry
ExtMesh (bp) on 0 =   188 x   188 x   188 =     6644672
PhiOnMesh: Number of (b)points on node 0 =              1259712
PhiOnMesh: nlist on node 0 =              2631056

        iscf     Eharris(eV)        E_KS(eV)     FreeEng(eV)     dDmax    Ef(eV) dHmax(eV)
   scf:    1    -1515.725781    -1515.725561    -1515.725561  0.001567 -3.079147  0.007998
   scf:    2    -1515.725482    -1515.725539    -1515.725539  0.000593 -3.085336  0.018544
   scf:    3    -1515.725572    -1515.725565    -1515.725565  0.000419 -3.081043  0.001106
   scf:    4    -1515.725565    -1515.725565    -1515.725565  0.000013 -3.081167  0.000645

SCF Convergence by DM+H criterion
max |DM_out - DM_in|         :     0.0000129432
max |H_out - H_in|      (eV) :     0.0006446176
SCF cycle converged after 4 iterations

Using DM_out to compute the final energy and forces
No. of atoms with KB's overlaping orbs in proc 0. Max # of overlaps:      13     117

siesta: E_KS(eV) =            -1515.7256

siesta: Atomic forces (eV/Ang):
----------------------------------------
   Tot   -0.017824    0.026414    0.000000
----------------------------------------
   Max    0.044780
   Res    0.011169    sqrt( Sum f_i^2 / 3N )
----------------------------------------
   Max    0.044780    constrained

Stress-tensor-Voigt (kbar):       -0.01        0.02        0.00        0.02        0.00       -0.00
(Free)E + p*V (eV/cell)    -1515.7587
Target enthalpy (eV/cell)    -1515.7256

                     ====================================
                        Begin Broyden opt. move =     14
                     ====================================

outcoor: Atomic coordinates (Ang):                          
    2.18595660    1.10710163   -0.00000000   1       1  C.gga
    3.41224201    1.80763891   -0.00000000   1       2  C.gga
    3.43674222    3.21476420   -0.00000000   1       3  C.gga
    2.21985964    3.93653961   -0.00000000   1       4  C.gga
    0.98575145    3.24416506   -0.00000000   1       5  C.gga
    0.97656746    1.83300827   -0.00000000   1       6  C.gga
    1.40911620    5.68779071    0.00000001   2       7  H.gga
    2.17371236    0.00044086   -0.00000000   2       8  H.gga
    4.37004632    1.25075776    0.00000000   2       9  H.gga
    4.38993284    3.77688073    0.00000000   2      10  H.gga
    0.03064037    3.80919800   -0.00000000   2      11  H.gga
    0.00721527    1.29643305    0.00000000   2      12  H.gga
    2.31156278    5.31385816   -0.00000000   3      13  O.gga

outcell: Unit cell vectors (Ang):
       20.000000    0.000000    0.000000
        0.000000   20.000000    0.000000
[...]
    4.39356431    3.77849995   -0.00000000   2      10  H.gga
    0.03480943    3.81579581   -0.00000000   2      11  H.gga
    0.00557040    1.30081630   -0.00000000   2      12  H.gga
    2.29552600    5.31680259    0.00000003   3      13  O.gga

outcell: Unit cell vectors (Ang):
       20.000000    0.000000    0.000000
        0.000000   20.000000    0.000000
        0.000000    0.000000   20.000000

outcell: Cell vector modules (Ang)   :   20.000000   20.000000   20.000000
outcell: Cell angles (23,13,12) (deg):     90.0000     90.0000     90.0000
outcell: Cell volume (Ang**3)        :   8000.0000
<dSpData1D:S at geom step 29
  <sparsity:sparsity for geom step 29
    nrows_g=121 nrows=121 sparsity=.9980 nnzs=14611, refcount: 7>
  <dData1D:(new from dSpData1D) n=14611, refcount: 1>
refcount: 1>
new_DM -- step:    30
Re-using DM from previous geometries...
Number of DMs in history: 1
 DM extrapolation coefficients: 
1   1.00000
New DM after history re-use:
<dSpData2D:SpM extrapolated using coords
  <sparsity:sparsity for geom step 29
    nrows_g=121 nrows=121 sparsity=.9980 nnzs=14611, refcount: 8>
  <dData2D:(temp array for extrapolation) n=14611 m=1, refcount: 1>
refcount: 1>
No. of atoms with KB's overlaping orbs in proc 0. Max # of overlaps:      13     117
New grid distribution:   1
           1       1:  108    1:  108    1:  108

InitMesh: MESH =   216 x   216 x   216 =    10077696
InitMesh: (bp) =   108 x   108 x   108 =     1259712
InitMesh: Mesh cutoff (required, used) =   300.000   322.366 Ry
ExtMesh (bp) on 0 =   188 x   188 x   188 =     6644672
PhiOnMesh: Number of (b)points on node 0 =              1259712
PhiOnMesh: nlist on node 0 =              2631372

        iscf     Eharris(eV)        E_KS(eV)     FreeEng(eV)     dDmax    Ef(eV) dHmax(eV)
   scf:    1    -1515.727118    -1515.727134    -1515.727134  0.000327 -3.090099  0.001270
   scf:    2    -1515.727132    -1515.727134    -1515.727134  0.000102 -3.090973  0.003214
   scf:    3    -1515.727135    -1515.727135    -1515.727135  0.000071 -3.090364  0.000246

SCF Convergence by DM+H criterion
max |DM_out - DM_in|         :     0.0000709822
max |H_out - H_in|      (eV) :     0.0002460969
SCF cycle converged after 3 iterations

Using DM_out to compute the final energy and forces
No. of atoms with KB's overlaping orbs in proc 0. Max # of overlaps:      13     117

siesta: E_KS(eV) =            -1515.7271

siesta: Atomic forces (eV/Ang):
----------------------------------------
   Tot   -0.046706    0.017428   -0.000000
----------------------------------------
   Max    0.013123
   Res    0.003526    sqrt( Sum f_i^2 / 3N )
----------------------------------------
   Max    0.013123    constrained

Stress-tensor-Voigt (kbar):        0.00        0.02        0.00       -0.01       -0.00        0.00
(Free)E + p*V (eV/cell)    -1515.7651
Target enthalpy (eV/cell)    -1515.7271

                     ====================================
                        Begin Broyden opt. move =     30
                     ====================================

outcoor: Atomic coordinates (Ang):                          
    2.18537056    1.11028240   -0.00000001   1       1  C.gga
    3.41160967    1.81117607   -0.00000000   1       2  C.gga
    3.43825310    3.21918231    0.00000000   1       3  C.gga
    2.21973866    3.93892764    0.00000001   1       4  C.gga
    0.98666981    3.24575950    0.00000000   1       5  C.gga
    0.97559588    1.83567041   -0.00000001   1       6  C.gga
    1.38457512    5.67282553    0.00000002   2       7  H.gga
    2.17316531    0.00350699   -0.00000001   2       8  H.gga
    4.36831443    1.25221269   -0.00000000   2       9  H.gga
    4.39316154    3.77903068    0.00000000   2      10  H.gga
    0.03451246    3.81575231   -0.00000000   2      11  H.gga
    0.00544440    1.30079087   -0.00000001   2      12  H.gga
    2.29458002    5.31692904    0.00000005   3      13  O.gga

outcell: Unit cell vectors (Ang):
       20.000000    0.000000    0.000000
        0.000000   20.000000    0.000000
        0.000000    0.000000   20.000000

outcell: Cell vector modules (Ang)   :   20.000000   20.000000   20.000000
outcell: Cell angles (23,13,12) (deg):     90.0000     90.0000     90.0000
outcell: Cell volume (Ang**3)        :   8000.0000
<dSpData1D:S at geom step 30
  <sparsity:sparsity for geom step 30
    nrows_g=121 nrows=121 sparsity=.9980 nnzs=14611, refcount: 7>
  <dData1D:(new from dSpData1D) n=14611, refcount: 1>
refcount: 1>
new_DM -- step:    31
Re-using DM from previous geometries...
Number of DMs in history: 1
 DM extrapolation coefficients: 
1   1.00000
New DM after history re-use:
<dSpData2D:SpM extrapolated using coords
  <sparsity:sparsity for geom step 30
    nrows_g=121 nrows=121 sparsity=.9980 nnzs=14611, refcount: 8>
  <dData2D:(temp array for extrapolation) n=14611 m=1, refcount: 1>
refcount: 1>
No. of atoms with KB's overlaping orbs in proc 0. Max # of overlaps:      13     117
New grid distribution:   1
           1       1:  108    1:  108    1:  108

InitMesh: MESH =   216 x   216 x   216 =    10077696
InitMesh: (bp) =   108 x   108 x   108 =     1259712
InitMesh: Mesh cutoff (required, used) =   300.000   322.366 Ry
ExtMesh (bp) on 0 =   188 x   188 x   188 =     6644672
PhiOnMesh: Number of (b)points on node 0 =              1259712
PhiOnMesh: nlist on node 0 =              2631343

        iscf     Eharris(eV)        E_KS(eV)     FreeEng(eV)     dDmax    Ef(eV) dHmax(eV)
   scf:    1    -1515.727256    -1515.727176    -1515.727176  0.000452 -3.090544  0.001380
   scf:    2    -1515.727174    -1515.727176    -1515.727176  0.000079 -3.091229  0.003451
   scf:    3    -1515.727177    -1515.727177    -1515.727177  0.000056 -3.090748  0.000323

SCF Convergence by DM+H criterion
max |DM_out - DM_in|         :     0.0000556774
max |H_out - H_in|      (eV) :     0.0003234190
SCF cycle converged after 3 iterations

Using DM_out to compute the final energy and forces
No. of atoms with KB's overlaping orbs in proc 0. Max # of overlaps:      13     117

siesta: E_KS(eV) =            -1515.7272

siesta: Atomic forces (eV/Ang):
----------------------------------------
   Tot   -0.046458    0.017172    0.000001
----------------------------------------
   Max    0.011697
   Res    0.003486    sqrt( Sum f_i^2 / 3N )
----------------------------------------
   Max    0.011697    constrained

Stress-tensor-Voigt (kbar):        0.00        0.02        0.00       -0.01        0.00        0.00
(Free)E + p*V (eV/cell)    -1515.7644
Target enthalpy (eV/cell)    -1515.7272

                     ====================================
                        Begin Broyden opt. move =     31
                     ====================================

outcoor: Atomic coordinates (Ang):                          
    2.18532871    1.11041532   -0.00000001   1       1  C.gga
    3.41144630    1.81161008   -0.00000000   1       2  C.gga
    3.43786218    3.21960736    0.00000000   1       3  C.gga
    2.21922044    3.93909308    0.00000001   1       4  C.gga
    0.98628989    3.24567954   -0.00000000   1       5  C.gga
    0.97546346    1.83562427   -0.00000001   1       6  C.gga
    1.38309638    5.67237664    0.00000003   2       7  H.gga
    2.17323624    0.00361511   -0.00000001   2       8  H.gga
    4.36823540    1.25274687   -0.00000001   2       9  H.gga
    4.39262635    3.77974786    0.00000000   2      10  H.gga
    0.03417584    3.81569661   -0.00000000   2      11  H.gga
    0.00532234    1.30072435   -0.00000001   2      12  H.gga
    2.29335288    5.31713632    0.00000007   3      13  O.gga

outcell: Unit cell vectors (Ang):
       20.000000    0.000000    0.000000
        0.000000   20.000000    0.000000
        0.000000    0.000000   20.000000

outcell: Cell vector modules (Ang)   :   20.000000   20.000000   20.000000
outcell: Cell angles (23,13,12) (deg):     90.0000     90.0000     90.0000
outcell: Cell volume (Ang**3)        :   8000.0000
<dSpData1D:S at geom step 31
  <sparsity:sparsity for geom step 31
    nrows_g=121 nrows=121 sparsity=.9980 nnzs=14611, refcount: 7>
  <dData1D:(new from dSpData1D) n=14611, refcount: 1>
refcount: 1>
new_DM -- step:    32
Re-using DM from previous geometries...
Number of DMs in history: 1
 DM extrapolation coefficients: 
1   1.00000
New DM after history re-use:
<dSpData2D:SpM extrapolated using coords
  <sparsity:sparsity for geom step 31
    nrows_g=121 nrows=121 sparsity=.9980 nnzs=14611, refcount: 8>
  <dData2D:(temp array for extrapolation) n=14611 m=1, refcount: 1>
refcount: 1>
No. of atoms with KB's overlaping orbs in proc 0. Max # of overlaps:      13     117
New grid distribution:   1
           1       1:  108    1:  108    1:  108

InitMesh: MESH =   216 x   216 x   216 =    10077696
InitMesh: (bp) =   108 x   108 x   108 =     1259712
InitMesh: Mesh cutoff (required, used) =   300.000   322.366 Ry
ExtMesh (bp) on 0 =   188 x   188 x   188 =     6644672
PhiOnMesh: Number of (b)points on node 0 =              1259712
PhiOnMesh: nlist on node 0 =              2631343

        iscf     Eharris(eV)        E_KS(eV)     FreeEng(eV)     dDmax    Ef(eV) dHmax(eV)
   scf:    1    -1515.727148    -1515.727228    -1515.727228  0.000573 -3.090761  0.001677
   scf:    2    -1515.727225    -1515.727227    -1515.727227  0.000087 -3.091654  0.004062
   scf:    3    -1515.727228    -1515.727228    -1515.727228  0.000060 -3.091044  0.000339

SCF Convergence by DM+H criterion
max |DM_out - DM_in|         :     0.0000603568
max |H_out - H_in|      (eV) :     0.0003385116
SCF cycle converged after 3 iterations

Using DM_out to compute the final energy and forces
No. of atoms with KB's overlaping orbs in proc 0. Max # of overlaps:      13     117

siesta: E_KS(eV) =            -1515.7272

siesta: Atomic forces (eV/Ang):
----------------------------------------
   Tot   -0.046174    0.016826    0.000000
----------------------------------------
   Max    0.011394
   Res    0.003336    sqrt( Sum f_i^2 / 3N )
----------------------------------------
   Max    0.011394    constrained

Stress-tensor-Voigt (kbar):        0.00        0.02        0.00       -0.01        0.00       -0.00
(Free)E + p*V (eV/cell)    -1515.7638
Target enthalpy (eV/cell)    -1515.7272

                     ====================================
                        Begin Broyden opt. move =     32
                     ====================================

outcoor: Atomic coordinates (Ang):                          
    2.18531599    1.11054148   -0.00000001   1       1  C.gga
    3.41126687    1.81195605   -0.00000000   1       2  C.gga
    3.43751129    3.22000301    0.00000000   1       3  C.gga
    2.21879134    3.93925319    0.00000001   1       4  C.gga
    0.98603298    3.24560872   -0.00000000   1       5  C.gga
    0.97534378    1.83558621   -0.00000001   1       6  C.gga
    1.38187673    5.67202928    0.00000003   2       7  H.gga
    2.17329728    0.00370734   -0.00000000   2       8  H.gga
    4.36808710    1.25315299   -0.00000001   2       9  H.gga
    4.39218940    3.78030090    0.00000000   2      10  H.gga
    0.03391662    3.81563608    0.00000000   2      11  H.gga
    0.00528218    1.30060147   -0.00000001   2      12  H.gga
    2.29237838    5.31734553    0.00000010   3      13  O.gga

outcell: Unit cell vectors (Ang):
       20.000000    0.000000    0.000000
        0.000000   20.000000    0.000000
        0.000000    0.000000   20.000000

outcell: Cell vector modules (Ang)   :   20.000000   20.000000   20.000000
outcell: Cell angles (23,13,12) (deg):     90.0000     90.0000     90.0000
outcell: Cell volume (Ang**3)        :   8000.0000
<dSpData1D:S at geom step 32
  <sparsity:sparsity for geom step 32
    nrows_g=121 nrows=121 sparsity=.9980 nnzs=14611, refcount: 7>
  <dData1D:(new from dSpData1D) n=14611, refcount: 1>
refcount: 1>
new_DM -- step:    33
Re-using DM from previous geometries...
Number of DMs in history: 1
 DM extrapolation coefficients: 
1   1.00000
New DM after history re-use:
<dSpData2D:SpM extrapolated using coords
  <sparsity:sparsity for geom step 32
    nrows_g=121 nrows=121 sparsity=.9980 nnzs=14611, refcount: 8>
  <dData2D:(temp array for extrapolation) n=14611 m=1, refcount: 1>
refcount: 1>
No. of atoms with KB's overlaping orbs in proc 0. Max # of overlaps:      13     117
New grid distribution:   1
           1       1:  108    1:  108    1:  108

InitMesh: MESH =   216 x   216 x   216 =    10077696
InitMesh: (bp) =   108 x   108 x   108 =     1259712
InitMesh: Mesh cutoff (required, used) =   300.000   322.366 Ry
ExtMesh (bp) on 0 =   188 x   188 x   188 =     6644672
PhiOnMesh: Number of (b)points on node 0 =              1259712
PhiOnMesh: nlist on node 0 =              2631396

        iscf     Eharris(eV)        E_KS(eV)     FreeEng(eV)     dDmax    Ef(eV) dHmax(eV)
   scf:    1    -1515.727358    -1515.727269    -1515.727269  0.000499 -3.091004  0.000981
   scf:    2    -1515.727267    -1515.727268    -1515.727268  0.000047 -3.090876  0.002441
   scf:    3    -1515.727269    -1515.727269    -1515.727269  0.000035 -3.090966  0.000272

SCF Convergence by DM+H criterion
max |DM_out - DM_in|         :     0.0000347063
max |H_out - H_in|      (eV) :     0.0002721227
SCF cycle converged after 3 iterations

Using DM_out to compute the final energy and forces
No. of atoms with KB's overlaping orbs in proc 0. Max # of overlaps:      13     117

siesta: E_KS(eV) =            -1515.7273

siesta: Atomic forces (eV/Ang):
----------------------------------------
   Tot   -0.046457    0.016493    0.000000
----------------------------------------
   Max    0.009965
   Res    0.003309    sqrt( Sum f_i^2 / 3N )
----------------------------------------
   Max    0.009965    constrained

Stress-tensor-Voigt (kbar):        0.00        0.02        0.00       -0.01        0.00       -0.00
(Free)E + p*V (eV/cell)    -1515.7639
Target enthalpy (eV/cell)    -1515.7273

outcoor: Relaxed atomic coordinates (Ang):                  
    2.18531599    1.11054148   -0.00000001   1       1  C.gga
    3.41126687    1.81195605   -0.00000000   1       2  C.gga
    3.43751129    3.22000301    0.00000000   1       3  C.gga
    2.21879134    3.93925319    0.00000001   1       4  C.gga
    0.98603298    3.24560872   -0.00000000   1       5  C.gga
    0.97534378    1.83558621   -0.00000001   1       6  C.gga
    1.38187673    5.67202928    0.00000003   2       7  H.gga
    2.17329728    0.00370734   -0.00000000   2       8  H.gga
    4.36808710    1.25315299   -0.00000001   2       9  H.gga
    4.39218940    3.78030090    0.00000000   2      10  H.gga
    0.03391662    3.81563608    0.00000000   2      11  H.gga
    0.00528218    1.30060147   -0.00000001   2      12  H.gga
    2.29237838    5.31734553    0.00000010   3      13  O.gga

coxmol: Writing XMOL coordinates into file Phenol.xyz                                                          

siesta: Program's energy decomposition (eV):
siesta: Ebs     =      -459.011513
siesta: Eions   =      2250.705553
siesta: Ena     =       437.885118
siesta: Ekin    =      1024.180143
siesta: Enl     =      -188.596246
siesta: Eso     =         0.000000
siesta: Eldau   =         0.000000
siesta: DEna    =       -44.897680
siesta: DUscf   =         5.317894
siesta: DUext   =         0.000000
siesta: Exc     =      -498.910945
siesta: eta*DQ  =         0.000000
siesta: Emadel  =         0.000000
siesta: Emeta   =         0.000000
siesta: Emolmec =         0.000000
siesta: Ekinion =         0.000000
siesta: Eharris =     -1515.727269
siesta: Etot    =     -1515.727269
siesta: FreeEng =     -1515.727269

siesta: Final energy (eV):
siesta:  Band Struct. =    -459.011513
siesta:       Kinetic =    1024.180143
siesta:       Hartree =    3565.258419
siesta:       Eldau   =       0.000000
siesta:       Eso     =       0.000000
siesta:    Ext. field =       0.000000
siesta:   Exch.-corr. =    -498.910945
siesta:  Ion-electron =   -8042.217602
siesta:       Ion-ion =    2435.962716
siesta:       Ekinion =       0.000000
siesta:         Total =   -1515.727269
siesta:         Fermi =      -3.090966

siesta: Stress tensor (static) (eV/Ang**3):
siesta:     0.000001   -0.000005    0.000000
siesta:    -0.000005    0.000010    0.000000
siesta:    -0.000000    0.000000    0.000003

siesta: Cell volume =       8000.000000 Ang**3

siesta: Pressure (static):
siesta:                Solid            Molecule  Units
siesta:          -0.00000005         -0.00000005  Ry/Bohr**3
siesta:          -0.00000457         -0.00000418  eV/Ang**3
siesta:          -0.00732713         -0.00669422  kBar
(Free)E+ p_basis*V_orbitals  =       -1508.493544
(Free)Eharris+ p_basis*V_orbitals  =       -1508.493544

siesta: Electric dipole (a.u.)  =   -0.453784    0.075651   -0.000000
siesta: Electric dipole (Debye) =   -1.153403    0.192286   -0.000000

timer: Elapsed wall time (sec) =     776.561
timer: CPU execution times (sec):

Routine            Calls   Time/call    Tot.time        %
siesta                 1     776.561     776.561   100.00
Setup                  1       0.421       0.421     0.05
bands                  1       0.000       0.000     0.00
KSV_init               1       0.000       0.000     0.00
IterGeom              33      23.519     776.126    99.94
state_init            33       0.023       0.751     0.10
hsparse               33       0.001       0.022     0.00
overlap               33       0.020       0.669     0.09
Setup_H0              33       3.256     107.463    13.84
naefs                 66       0.000       0.006     0.00
MolMec                66       0.000       0.000     0.00
kinefsm               66       0.013       0.866     0.11
nlefsm                66       0.068       4.519     0.58
DHSCF_Init            33       3.143     103.722    13.36
DHSCF1                33       0.092       3.027     0.39
INITMESH              33       0.000       0.000     0.00
DHSCF2                33       3.051     100.695    12.97
REMESH                33       0.112       3.711     0.48
REORD                933       0.017      15.894     2.05
PHION                 33       1.744      57.562     7.41
COMM_BSC             537       0.018       9.457     1.22
POISON               252       0.810     204.052    26.28
fft                  504       0.319     160.871    20.72
IterSCF              153       3.130     478.943    61.67
setup_H              186       2.568     477.568    61.50
DHSCF                219       3.022     661.803    85.22
DHSCF3               219       2.554     559.397    72.04
rhoofd               219       0.386      84.582    10.89
CellXC               219       0.914     200.220    25.78
cellXC               219       0.914     200.218    25.78
vmat                 219       0.229      50.244     6.47
compute_dm           153       0.006       0.979     0.13
diagon               153       0.006       0.863     0.11
r-eigvec             153       0.005       0.756     0.10
r-buildHS            153       0.000       0.011     0.00
rdiag                153       0.005       0.744     0.10
rdiag1               153       0.000       0.046     0.01
rdiag2               153       0.001       0.104     0.01
rdiag3               153       0.003       0.503     0.06
rdiag4               153       0.001       0.087     0.01
r-buildD             153       0.001       0.077     0.01
MIXER                120       0.000       0.054     0.01
PostSCF               33       5.721     188.787    24.31
DHSCF4                33       3.103     102.406    13.19
dfscf                 33       2.614      86.255    11.11
overfsm               33       0.005       0.158     0.02
state_analysis        33       0.002       0.073     0.01
siesta_move           33       0.001       0.036     0.00
Analysis               1       0.005       0.005     0.00
optical                1       0.000       0.000     0.00
  
>> End of run:  21-MAR-2019  19:15:49
Job completed
