
                           ***********************       
                           *  WELCOME TO SIESTA  *       
                           ***********************       

reinit: Reading from input.fdf

reinit: -----------------------------------------------------------------------
reinit: System Name: 
reinit: -----------------------------------------------------------------------
reinit: System Label: Phenol
reinit: -----------------------------------------------------------------------
Siesta Version: siesta-4.1--736
Architecture  : unknown
Compiler flags: gfortran -O3 -fPIC -ftree-vectorize -fopenmp
PP flags      : -DFC_HAVE_ABORT
Libraries     : -L/usr/local/opt/openblas/lib -lopenblas -fopenmp
SERIAL version

* Running in serial mode
* Running 4 OpenMP threads.
* Running 4 processes.
* OpenMP version 201511
* OpenMP runtime schedule DYNAMIC, chunks 1
** OpenMP runtime schedule DYNAMIC, chunks 32
>> Start of run:  22-MAR-2019   9:48:18

initatom: Reading input for the pseudopotentials and atomic orbitals ----------
Species number:   1 Atomic number:    6 Label: C.gga
Species number:   2 Atomic number:    1 Label: H.gga
Species number:   3 Atomic number:    8 Label: O.gga

Ground state valence configuration:   2s02  2p02
Reading pseudopotential information in formatted form from C.gga.psf

Valence configuration for pseudopotential generation:
2s( 2.00) rc: 1.54
2p( 2.00) rc: 1.54
3d( 0.00) rc: 1.54
4f( 0.00) rc: 1.54
Ground state valence configuration:   1s01
Reading pseudopotential information in formatted form from H.gga.psf

Valence configuration for pseudopotential generation:
1s( 1.00) rc: 1.31
2p( 0.00) rc: 1.31
3d( 0.00) rc: 0.37
4f( 0.00) rc: 1.31
Ground state valence configuration:   2s02  2p04
Reading pseudopotential information in formatted form from O.gga.psf

Valence configuration for pseudopotential generation:
2s( 2.00) rc: 1.47
2p( 4.00) rc: 1.47
3d( 0.00) rc: 1.47
4f( 0.00) rc: 1.47
For C.gga, standard SIESTA heuristics set lmxkb to 3
 (one more than the basis l, including polarization orbitals).
Use PS.lmax or PS.KBprojectors blocks to override.
For H.gga, standard SIESTA heuristics set lmxkb to 2
 (one more than the basis l, including polarization orbitals).
Use PS.lmax or PS.KBprojectors blocks to override.
For O.gga, standard SIESTA heuristics set lmxkb to 3
 (one more than the basis l, including polarization orbitals).
Use PS.lmax or PS.KBprojectors blocks to override.

<basis_specs>
===============================================================================
C.gga                Z=   6    Mass=  12.010        Charge= 0.17977+309
Lmxo=1 Lmxkb= 3    BasisType=split      Semic=F
L=0  Nsemic=0  Cnfigmx=2
          n=1  nzeta=2  polorb=0
            splnorm:   0.15000    
               vcte:    0.0000    
               rinn:    0.0000    
               qcoe:    0.0000    
               qyuk:    0.0000    
               qwid:   0.10000E-01
                rcs:    0.0000      0.0000    
            lambdas:    1.0000      1.0000    
L=1  Nsemic=0  Cnfigmx=2
          n=1  nzeta=2  polorb=1
            splnorm:   0.15000    
               vcte:    0.0000    
               rinn:    0.0000    
               qcoe:    0.0000    
               qyuk:    0.0000    
               qwid:   0.10000E-01
                rcs:    0.0000      0.0000    
            lambdas:    1.0000      1.0000    
-------------------------------------------------------------------------------
L=0  Nkbl=1  erefs: 0.17977+309
L=1  Nkbl=1  erefs: 0.17977+309
L=2  Nkbl=1  erefs: 0.17977+309
L=3  Nkbl=1  erefs: 0.17977+309
===============================================================================
</basis_specs>

atom: Called for C.gga                 (Z =   6)

read_vps: Pseudopotential generation method:
read_vps: ATM3      Troullier-Martins                       
Total valence charge:    4.00000

read_vps: Pseudopotential includes a core correction:
read_vps: Pseudo-core for xc-correction

xc_check: Exchange-correlation functional:
xc_check: GGA Perdew, Burke & Ernzerhof 1996
V l=0 = -2*Zval/r beyond r=  1.5227
V l=1 = -2*Zval/r beyond r=  1.5227
V l=2 = -2*Zval/r beyond r=  1.5227
V l=3 = -2*Zval/r beyond r=  1.5038
All V_l potentials equal beyond r=  1.5227
This should be close to max(r_c) in ps generation
All pots = -2*Zval/r beyond r=  1.5227

VLOCAL1: 99.0% of the norm of Vloc inside     18.722 Ry
VLOCAL1: 99.9% of the norm of Vloc inside     42.668 Ry
atom: Maximum radius for 4*pi*r*r*local-pseudopot. charge    1.83678
atom: Maximum radius for r*vlocal+2*Zval:    1.58088
GHOST: No ghost state for L =  0
GHOST: No ghost state for L =  1
GHOST: No ghost state for L =  2
GHOST: No ghost state for L =  3

KBgen: Kleinman-Bylander projectors: 
   l= 0   rc=  1.704034   el= -1.009801   Ekb=  5.335044   kbcos=  0.316824
   l= 1   rc=  1.704034   el= -0.388707   Ekb= -3.785862   kbcos= -0.366464
   l= 2   rc=  1.791422   el=  0.001971   Ekb= -0.970471   kbcos= -0.009212
   l= 3   rc=  1.859892   el=  0.003065   Ekb= -0.399525   kbcos= -0.001223

KBgen: Total number of  Kleinman-Bylander projectors:   16
atom: -------------------------------------------------------------------------

atom: SANKEY-TYPE ORBITALS:
atom: Selected multiple-zeta basis: split     

SPLIT: Orbitals with angular momentum L= 0

SPLIT: Basis orbitals for state 2s

SPLIT: PAO cut-off radius determined from an
SPLIT: energy shift=  0.002205 Ry

   izeta = 1
                 lambda =    1.000000
                     rc =    5.382558
                 energy =   -1.007983
                kinetic =    0.829025
    potential(screened) =   -1.837009
       potential(ionic) =   -5.376592

   izeta = 2
                 rmatch =    3.475094
              splitnorm =    0.150000
                 energy =   -0.876935
                kinetic =    1.279964
    potential(screened) =   -2.156899
       potential(ionic) =   -5.943761

SPLIT: Orbitals with angular momentum L= 1

SPLIT: Basis orbitals for state 2p

SPLIT: PAO cut-off radius determined from an
SPLIT: energy shift=  0.002205 Ry

   izeta = 1
                 lambda =    1.000000
                     rc =    6.740804
                 energy =   -0.386704
                kinetic =    2.327316
    potential(screened) =   -2.714020
       potential(ionic) =   -6.100339

   izeta = 2
                 rmatch =    3.792903
              splitnorm =    0.150000
                 energy =   -0.270625
                kinetic =    3.420974
    potential(screened) =   -3.691599
       potential(ionic) =   -7.453004

POLgen: Perturbative polarization orbital with L=  2

POLgen: Polarization orbital for state 2p

   izeta = 1
                     rc =    6.740804
                 energy =    0.975645
                kinetic =    2.058046
    potential(screened) =   -1.082401
       potential(ionic) =   -3.782952
atom: Total number of Sankey-type orbitals: 13

atm_pop: Valence configuration (for local Pseudopot. screening):
 2s( 2.00)                                                            
 2p( 2.00)                                                            
Vna: chval, zval:    4.00000   4.00000

Vna:  Cut-off radius for the neutral-atom potential:   6.740804
comcore: Pseudo-core radius Rcore=  1.791422

atom: _________________________________________________________________________

<basis_specs>
===============================================================================
H.gga                Z=   1    Mass=  1.0100        Charge= 0.17977+309
Lmxo=0 Lmxkb= 2    BasisType=split      Semic=F
L=0  Nsemic=0  Cnfigmx=1
          n=1  nzeta=2  polorb=1
            splnorm:   0.15000    
               vcte:    0.0000    
               rinn:    0.0000    
               qcoe:    0.0000    
               qyuk:    0.0000    
               qwid:   0.10000E-01
                rcs:    0.0000      0.0000    
            lambdas:    1.0000      1.0000    
-------------------------------------------------------------------------------
L=0  Nkbl=1  erefs: 0.17977+309
L=1  Nkbl=1  erefs: 0.17977+309
L=2  Nkbl=1  erefs: 0.17977+309
===============================================================================
</basis_specs>

atom: Called for H.gga                 (Z =   1)

read_vps: Pseudopotential generation method:
read_vps: ATM3      Troullier-Martins                       
Total valence charge:    1.00000

xc_check: Exchange-correlation functional:
xc_check: GGA Perdew, Burke & Ernzerhof 1996
V l=0 = -2*Zval/r beyond r=  1.2977
V l=1 = -2*Zval/r beyond r=  1.2815
V l=2 = -2*Zval/r beyond r=  1.2656
All V_l potentials equal beyond r=  1.2977
This should be close to max(r_c) in ps generation
All pots = -2*Zval/r beyond r=  1.2977

VLOCAL1: 99.0% of the norm of Vloc inside     25.776 Ry
VLOCAL1: 99.9% of the norm of Vloc inside     58.745 Ry
atom: Maximum radius for 4*pi*r*r*local-pseudopot. charge    1.52711
atom: Maximum radius for r*vlocal+2*Zval:    1.28155
GHOST: No ghost state for L =  0
GHOST: No ghost state for L =  1
GHOST: No ghost state for L =  2

KBgen: Kleinman-Bylander projectors: 
   l= 0   rc=  1.434438   el= -0.477200   Ekb= -1.957043   kbcos= -0.361614
   l= 1   rc=  1.508111   el=  0.001076   Ekb= -0.424224   kbcos= -0.025441
   l= 2   rc=  1.527112   el=  0.002010   Ekb= -0.378578   kbcos= -0.002010

KBgen: Total number of  Kleinman-Bylander projectors:    9
atom: -------------------------------------------------------------------------

atom: SANKEY-TYPE ORBITALS:
atom: Selected multiple-zeta basis: split     

SPLIT: Orbitals with angular momentum L= 0

SPLIT: Basis orbitals for state 1s

SPLIT: PAO cut-off radius determined from an
SPLIT: energy shift=  0.002205 Ry

   izeta = 1
                 lambda =    1.000000
                     rc =    6.518340
                 energy =   -0.475328
                kinetic =    0.879188
    potential(screened) =   -1.354517
       potential(ionic) =   -1.873657

   izeta = 2
                 rmatch =    4.103729
              splitnorm =    0.150000
                 energy =   -0.382914
                kinetic =    1.427335
    potential(screened) =   -1.810249
       potential(ionic) =   -2.357086

POLgen: Perturbative polarization orbital with L=  1

POLgen: Polarization orbital for state 1s

   izeta = 1
                     rc =    6.518340
                 energy =    0.536347
                kinetic =    1.136516
    potential(screened) =   -0.600169
       potential(ionic) =   -1.065665
atom: Total number of Sankey-type orbitals:  5

atm_pop: Valence configuration (for local Pseudopot. screening):
 1s( 1.00)                                                            
Vna: chval, zval:    1.00000   1.00000

Vna:  Cut-off radius for the neutral-atom potential:   6.518340

atom: _________________________________________________________________________

<basis_specs>
===============================================================================
O.gga                Z=   8    Mass=  16.000        Charge= 0.17977+309
Lmxo=1 Lmxkb= 3    BasisType=split      Semic=F
L=0  Nsemic=0  Cnfigmx=2
          n=1  nzeta=2  polorb=0
            splnorm:   0.15000    
               vcte:    0.0000    
               rinn:    0.0000    
               qcoe:    0.0000    
               qyuk:    0.0000    
               qwid:   0.10000E-01
                rcs:    0.0000      0.0000    
            lambdas:    1.0000      1.0000    
L=1  Nsemic=0  Cnfigmx=2
          n=1  nzeta=2  polorb=1
            splnorm:   0.15000    
               vcte:    0.0000    
               rinn:    0.0000    
               qcoe:    0.0000    
               qyuk:    0.0000    
               qwid:   0.10000E-01
                rcs:    0.0000      0.0000    
            lambdas:    1.0000      1.0000    
-------------------------------------------------------------------------------
L=0  Nkbl=1  erefs: 0.17977+309
L=1  Nkbl=1  erefs: 0.17977+309
L=2  Nkbl=1  erefs: 0.17977+309
L=3  Nkbl=1  erefs: 0.17977+309
===============================================================================
</basis_specs>

atom: Called for O.gga                 (Z =   8)

read_vps: Pseudopotential generation method:
read_vps: ATM3      Troullier-Martins                       
Total valence charge:    6.00000

read_vps: Pseudopotential includes a core correction:
read_vps: Pseudo-core for xc-correction

xc_check: Exchange-correlation functional:
xc_check: GGA Perdew, Burke & Ernzerhof 1996
V l=0 = -2*Zval/r beyond r=  1.4482
V l=1 = -2*Zval/r beyond r=  1.4482
V l=2 = -2*Zval/r beyond r=  1.4482
V l=3 = -2*Zval/r beyond r=  1.4482
All V_l potentials equal beyond r=  1.4482
This should be close to max(r_c) in ps generation
All pots = -2*Zval/r beyond r=  1.4482

VLOCAL1: 99.0% of the norm of Vloc inside     20.696 Ry
VLOCAL1: 99.9% of the norm of Vloc inside     47.167 Ry
atom: Maximum radius for 4*pi*r*r*local-pseudopot. charge    1.74697
atom: Maximum radius for r*vlocal+2*Zval:    1.52250
GHOST: No ghost state for L =  0
GHOST: No ghost state for L =  1
GHOST: No ghost state for L =  2
GHOST: No ghost state for L =  3

KBgen: Kleinman-Bylander projectors: 
   l= 0   rc=  1.620715   el= -1.757696   Ekb=  4.880948   kbcos=  0.293490
   l= 1   rc=  1.600578   el= -0.664256   Ekb= -6.909822   kbcos= -0.499892
   l= 2   rc=  1.703827   el=  0.002031   Ekb= -1.539219   kbcos= -0.006778
   l= 3   rc=  1.746967   el=  0.003153   Ekb= -0.568983   kbcos= -0.000967

KBgen: Total number of  Kleinman-Bylander projectors:   16
atom: -------------------------------------------------------------------------

atom: SANKEY-TYPE ORBITALS:
atom: Selected multiple-zeta basis: split     

SPLIT: Orbitals with angular momentum L= 0

SPLIT: Basis orbitals for state 2s

SPLIT: PAO cut-off radius determined from an
SPLIT: energy shift=  0.002205 Ry

   izeta = 1
                 lambda =    1.000000
                     rc =    4.139122
                 energy =   -1.755549
                kinetic =    1.529685
    potential(screened) =   -3.285233
       potential(ionic) =  -11.160563

   izeta = 2
                 rmatch =    2.541963
              splitnorm =    0.150000
                 energy =   -1.517776
                kinetic =    2.348222
    potential(screened) =   -3.865999
       potential(ionic) =  -12.356890

SPLIT: Orbitals with angular momentum L= 1

SPLIT: Basis orbitals for state 2p

SPLIT: PAO cut-off radius determined from an
SPLIT: energy shift=  0.002205 Ry

   izeta = 1
                 lambda =    1.000000
                     rc =    5.314825
                 energy =   -0.662390
                kinetic =    4.472446
    potential(screened) =   -5.134836
       potential(ionic) =  -12.694617

   izeta = 2
                 rmatch =    2.705925
              splitnorm =    0.150000
                 energy =   -0.427537
                kinetic =    6.597007
    potential(screened) =   -7.024544
       potential(ionic) =  -15.479186

POLgen: Perturbative polarization orbital with L=  2

POLgen: Polarization orbital for state 2p

   izeta = 1
                     rc =    5.314825
                 energy =    1.979175
                kinetic =    4.015874
    potential(screened) =   -2.036699
       potential(ionic) =   -7.919671
atom: Total number of Sankey-type orbitals: 13

atm_pop: Valence configuration (for local Pseudopot. screening):
 2s( 2.00)                                                            
 2p( 4.00)                                                            
Vna: chval, zval:    6.00000   6.00000

Vna:  Cut-off radius for the neutral-atom potential:   5.314825
comcore: Pseudo-core radius Rcore=  1.377587

atom: _________________________________________________________________________

prinput: Basis input ----------------------------------------------------------

PAO.BasisType split     

%block ChemicalSpeciesLabel
    1    6 C.gga                   # Species index, atomic number, species label
    2    1 H.gga                   # Species index, atomic number, species label
    3    8 O.gga                   # Species index, atomic number, species label
%endblock ChemicalSpeciesLabel

%block PAO.Basis                 # Define Basis set
C.gga                 2                    # Species label, number of l-shells
 n=2   0   2                         # n, l, Nzeta 
   5.383      3.475   
   1.000      1.000   
 n=2   1   2 P   1                   # n, l, Nzeta, Polarization, NzetaPol
   6.741      3.793   
   1.000      1.000   
H.gga                 1                    # Species label, number of l-shells
 n=1   0   2 P   1                   # n, l, Nzeta, Polarization, NzetaPol
   6.518      4.104   
   1.000      1.000   
O.gga                 2                    # Species label, number of l-shells
 n=2   0   2                         # n, l, Nzeta 
   4.139      2.542   
   1.000      1.000   
 n=2   1   2 P   1                   # n, l, Nzeta, Polarization, NzetaPol
   5.315      2.706   
   1.000      1.000   
%endblock PAO.Basis

prinput: ----------------------------------------------------------------------

coor:   Atomic-coordinates input format  =     Cartesian coordinates
coor:                                          (in Angstroms)

siesta: Atomic coordinates (Bohr) and species
siesta:      4.13884   2.11496   0.00000  1        1
siesta:      6.44149   3.41145   0.00000  1        2
siesta:      6.47265   6.05474   0.00000  1        3
siesta:      4.19960   7.40994   0.00000  1        4
siesta:      1.88980   6.10327   0.00000  1        5
siesta:      1.86435   3.46007   0.00000  1        6
siesta:      2.71593  10.95093   0.00000  2        7
siesta:      4.11709   0.06975   0.00000  2        8
siesta:      8.20111   2.36877   0.00000  2        9
siesta:      8.26045   7.04989   0.00000  2       10
siesta:      0.12145   7.13257   0.00000  2       11
siesta:      0.08288   2.45511   0.00000  2       12
siesta:      4.25190   9.95775   0.00000  3       13

siesta: System type = molecule  

initatomlists: Number of atoms, orbitals, and projectors:     13   121   166

coxmol: Writing XMOL coordinates into file Phenol.xyz                                                          

siesta: ******************** Simulation parameters ****************************
siesta:
siesta: The following are some of the parameters of the simulation.
siesta: A complete list of the parameters used, including default values,
siesta: can be found in file out.fdf
siesta:
redata: Spin configuration                          = none
redata: Number of spin components                   = 1
redata: Time-Reversal Symmetry                      = T
redata: Spin-spiral                                 = F
redata: Long output                                 =   F
redata: Number of Atomic Species                    =        3
redata: Charge density info will appear in .RHO file
redata: Write Mulliken Pop.                         = NO
redata: Mesh Cutoff                                 =   300.0000 Ry
redata: Net charge of the system                    =     0.0000 |e|
redata: Min. number of SCF Iter                     =        0
redata: Max. number of SCF Iter                     =     1000
redata: SCF mix quantity                            = Hamiltonian
redata: Mix DM or H after convergence               =   F
redata: Recompute H after scf cycle                 =   F
redata: Mix DM in first SCF step                    =   T
redata: Write Pulay info on disk                    =   F
redata: New DM Mixing Weight                        =     0.2500
redata: New DM Occupancy tolerance                  = 0.000000000001
redata: No kicks to SCF
redata: DM Mixing Weight for Kicks                  =     0.5000
redata: Require Harris convergence for SCF          =   F
redata: Harris energy tolerance for SCF             =     0.000100 eV
redata: Require DM convergence for SCF              =   T
redata: DM tolerance for SCF                        =     0.0001
redata: Require EDM convergence for SCF             =   F
redata: EDM tolerance for SCF                       =     0.001000 eV
redata: Require H convergence for SCF               =   T
redata: Hamiltonian tolerance for SCF               =     0.001000 eV
redata: Require (free) Energy convergence for SCF   =   F
redata: (free) Energy tolerance for SCF             =     0.000100 eV
redata: Using Saved Data (generic)                  =   F
redata: Use continuation files for DM               =   F
redata: Neglect nonoverlap interactions             =   F
redata: Method of Calculation                       = Diagonalization
redata: Divide and Conquer                          =   T
redata: Electronic Temperature                      =   299.9869 K
redata: Fix the spin of the system                  =   F
redata: Dynamics option                             = CG coord. optimization
redata: Variable cell                               =   F
redata: Use continuation files for CG               =   F
redata: Max atomic displ per move                   =     0.1058 Ang
redata: Maximum number of CG moves                  =     1000
redata: Force tolerance                             =     0.0100 eV/Ang
mix.SCF: Pulay mixing                            = Pulay
mix.SCF:    Variant                              = stable
mix.SCF:    History steps                        = 2
mix.SCF:    Linear mixing weight                 =     0.250000
mix.SCF:    Mixing weight                        =     0.250000
mix.SCF:    SVD condition                        = 0.1000E-07
redata: ***********************************************************************

%block SCF.Mixers
  Pulay
%endblock SCF.Mixers

%block SCF.Mixer.Pulay
  # Mixing method
  method pulay
  variant stable

  # Mixing options
  weight 0.2500
  weight.linear 0.2500
  history 2
%endblock SCF.Mixer.Pulay

DM_history_depth set to one: no extrapolation allowed by default for geometry relaxation
Size of DM history Fstack: 1
Total number of electrons:    36.000000
Total ionic charge:    36.000000
 Kpoints in:            1 . Kpoints trimmed:            1

siesta: k-grid: Number of k-points =     1
siesta: k-grid: Cutoff (effective) =    10.000 Ang
siesta: k-grid: Supercell and displacements
siesta: k-grid:    1   0   0      0.000
siesta: k-grid:    0   1   0      0.000
siesta: k-grid:    0   0   1      0.000


                     ====================================
                        Begin CG opt. move =      0
                     ====================================

outcoor: Atomic coordinates (Ang):                          
    2.19018000    1.11919000    0.00000000   1       1  C.gga
    3.40869000    1.80526000    0.00000000   1       2  C.gga
    3.42518000    3.20403000    0.00000000   1       3  C.gga
    2.22233000    3.92117000    0.00000000   1       4  C.gga
    1.00004000    3.22971000    0.00000000   1       5  C.gga
    0.98657000    1.83099000    0.00000000   1       6  C.gga
    1.43721000    5.79498000    0.00000000   2       7  H.gga
    2.17867000    0.03691000    0.00000000   2       8  H.gga
    4.33984000    1.25350000    0.00000000   2       9  H.gga
    4.37124000    3.73064000    0.00000000   2      10  H.gga
    0.06427000    3.77439000    0.00000000   2      11  H.gga
    0.04386000    1.29919000    0.00000000   2      12  H.gga
    2.25001000    5.26941000    0.00000000   3      13  O.gga

outcell: Unit cell vectors (Ang):
       20.000000    0.000000    0.000000
        0.000000   20.000000    0.000000
        0.000000    0.000000   20.000000

outcell: Cell vector modules (Ang)   :   20.000000   20.000000   20.000000
outcell: Cell angles (23,13,12) (deg):     90.0000     90.0000     90.0000
outcell: Cell volume (Ang**3)        :   8000.0000
<dSpData1D:S at geom step 0
  <sparsity:sparsity for geom step 0
    nrows_g=121 nrows=121 sparsity=.9985 nnzs=14619, refcount: 7>
  <dData1D:(new from dSpData1D) n=14619, refcount: 1>
refcount: 1>
new_DM -- step:     1
Initializing Density Matrix...
DM filled with atomic data:
<dSpData2D:DM initialized from atoms
  <sparsity:sparsity for geom step 0
    nrows_g=121 nrows=121 sparsity=.9985 nnzs=14619, refcount: 8>
  <dData2D:DM n=14619 m=1, refcount: 1>
refcount: 1>

No. of atoms with KB's overlaping orbs in proc 0. Max # of overlaps:      13     118
New grid distribution:   1
           1       1:  108    1:  108    1:  108

InitMesh: MESH =   216 x   216 x   216 =    10077696
InitMesh: (bp) =   108 x   108 x   108 =     1259712
InitMesh: Mesh cutoff (required, used) =   300.000   322.366 Ry
ExtMesh (bp) on 0 =   188 x   188 x   188 =     6644672
PhiOnMesh: Number of (b)points on node 0 =              1259712
PhiOnMesh: nlist on node 0 =              2631478

stepf: Fermi-Dirac step function

siesta: Program's energy decomposition (eV):
siesta: Ebs     =      -344.576689
siesta: Eions   =      2250.705553
siesta: Ena     =       437.721806
siesta: Ekin    =      1102.942223
siesta: Enl     =      -208.796467
siesta: Eso     =         0.000000
siesta: Eldau   =         0.000000
siesta: DEna    =       -89.938200
siesta: DUscf   =        14.261340
siesta: DUext   =         0.000000
siesta: Exc     =      -516.434064
siesta: eta*DQ  =         0.000000
siesta: Emadel  =         0.000000
siesta: Emeta   =         0.000000
siesta: Emolmec =         0.000000
siesta: Ekinion =         0.000000
siesta: Eharris =     -1501.243932
siesta: Etot    =     -1510.948914
siesta: FreeEng =     -1510.948914

        iscf     Eharris(eV)        E_KS(eV)     FreeEng(eV)     dDmax    Ef(eV) dHmax(eV)
   scf:    1    -1501.243932    -1510.948914    -1510.948914  1.981527 -8.456082 10.306345
timer: Routine,Calls,Time,% = IterSCF        1       7.111  43.43
   scf:    2    -1517.139230    -1514.422590    -1514.422590  0.135728 -4.893288  4.863545
   scf:    3    -1515.802749    -1515.449627    -1515.449627  0.127516 -3.238067  0.762522
   scf:    4    -1515.528109    -1515.492389    -1515.492389  0.009057 -3.220560  0.522410
   scf:    5    -1515.520476    -1515.508503    -1515.508503  0.009633 -3.175778  0.235011
   scf:    6    -1515.512135    -1515.510513    -1515.510513  0.005920 -3.123677  0.093759
   scf:    7    -1515.510864    -1515.510737    -1515.510737  0.004034 -3.074399  0.030214
   scf:    8    -1515.510961    -1515.510860    -1515.510860  0.000374 -3.071118  0.019974
   scf:    9    -1515.510937    -1515.510904    -1515.510904  0.000450 -3.070035  0.010220
   scf:   10    -1515.510914    -1515.510909    -1515.510909  0.000249 -3.070620  0.005267
   scf:   11    -1515.510912    -1515.510911    -1515.510911  0.000269 -3.071562  0.000877
   scf:   12    -1515.510911    -1515.510911    -1515.510911  0.000019 -3.071732  0.000515

SCF Convergence by DM+H criterion
max |DM_out - DM_in|         :     0.0000185880
max |H_out - H_in|      (eV) :     0.0005148364
SCF cycle converged after 12 iterations

Using DM_out to compute the final energy and forces
No. of atoms with KB's overlaping orbs in proc 0. Max # of overlaps:      13     118

siesta: E_KS(eV) =            -1515.5109

siesta: E_KS - E_eggbox =     -1515.5109

siesta: Atomic forces (eV/Ang):
----------------------------------------
   Tot    0.047125   -0.026207    0.000000
----------------------------------------
   Max    1.738037
   Res    0.565159    sqrt( Sum f_i^2 / 3N )
----------------------------------------
   Max    1.738037    constrained

Stress-tensor-Voigt (kbar):       -1.20       -1.05        0.00       -0.25       -0.00       -0.00
(Free)E + p*V (eV/cell)    -1511.7825
Target enthalpy (eV/cell)    -1515.5109

                     ====================================
                        Begin CG opt. move =      1
                     ====================================

outcoor: Atomic coordinates (Ang):                          
    2.19053527    1.12010797    0.00000000   1       1  C.gga
    3.39291320    1.81469859    0.00000000   1       2  C.gga
    3.43020029    3.20109053    0.00000000   1       3  C.gga
    2.18562042    3.91769248   -0.00000000   1       4  C.gga
    1.00533377    3.21363298    0.00000000   1       5  C.gga
    0.99761435    1.83908211   -0.00000000   1       6  C.gga
    1.41934752    5.77397421   -0.00000000   2       7  H.gga
    2.17825268    0.01018668    0.00000000   2       8  H.gga
    4.36363273    1.24137503    0.00000000   2       9  H.gga
    4.39239564    3.74679129   -0.00000000   2      10  H.gga
    0.04165484    3.79058236   -0.00000000   2      11  H.gga
    0.01987446    1.28664726    0.00000000   2      12  H.gga
    2.30212795    5.31272263    0.00000000   3      13  O.gga

outcell: Unit cell vectors (Ang):
       20.000000    0.000000    0.000000
        0.000000   20.000000    0.000000
        0.000000    0.000000   20.000000

outcell: Cell vector modules (Ang)   :   20.000000   20.000000   20.000000
outcell: Cell angles (23,13,12) (deg):     90.0000     90.0000     90.0000
outcell: Cell volume (Ang**3)        :   8000.0000
<dSpData1D:S at geom step 1
  <sparsity:sparsity for geom step 1
    nrows_g=121 nrows=121 sparsity=.9981 nnzs=14613, refcount: 7>
  <dData1D:(new from dSpData1D) n=14613, refcount: 1>
refcount: 1>
new_DM -- step:     2
Re-using DM from previous geometries...
Number of DMs in history: 1
 DM extrapolation coefficients: 
1   1.00000
New DM after history re-use:
<dSpData2D:SpM extrapolated using coords
  <sparsity:sparsity for geom step 1
    nrows_g=121 nrows=121 sparsity=.9981 nnzs=14613, refcount: 8>
  <dData2D:(temp array for extrapolation) n=14613 m=1, refcount: 1>
refcount: 1>
Note: For starting DM, Qtot, Tr[D*S] =         36.00000000         35.88502334
No. of atoms with KB's overlaping orbs in proc 0. Max # of overlaps:      13     118
New grid distribution:   1
           1       1:  108    1:  108    1:  108

InitMesh: MESH =   216 x   216 x   216 =    10077696
InitMesh: (bp) =   108 x   108 x   108 =     1259712
InitMesh: Mesh cutoff (required, used) =   300.000   322.366 Ry
ExtMesh (bp) on 0 =   188 x   188 x   188 =     6644672
PhiOnMesh: Number of (b)points on node 0 =              1259712
PhiOnMesh: nlist on node 0 =              2631396

        iscf     Eharris(eV)        E_KS(eV)     FreeEng(eV)     dDmax    Ef(eV) dHmax(eV)
   scf:    1    -1516.444175    -1515.500207    -1515.500207  0.168952 -4.856622  1.057928
   scf:    2    -1514.704654    -1515.296336    -1515.296336  0.077912 -4.601235  2.202055
   scf:    3    -1515.641318    -1515.561923    -1515.561923  0.053372 -4.803438  0.050657
   scf:    4    -1515.562537    -1515.562259    -1515.562259  0.001654 -4.805151  0.028971
   scf:    5    -1515.562488    -1515.562382    -1515.562382  0.001365 -4.802879  0.015619
   scf:    6    -1515.562437    -1515.562411    -1515.562411  0.000696 -4.800273  0.008690
   scf:    7    -1515.562427    -1515.562420    -1515.562420  0.000577 -4.798118  0.001836
   scf:    8    -1515.562420    -1515.562420    -1515.562420  0.000081 -4.798006  0.001345
   scf:    9    -1515.562420    -1515.562420    -1515.562420  0.000076 -4.798067  0.000627

SCF Convergence by DM+H criterion
max |DM_out - DM_in|         :     0.0000755805
max |H_out - H_in|      (eV) :     0.0006270397
SCF cycle converged after 9 iterations

Using DM_out to compute the final energy and forces
No. of atoms with KB's overlaping orbs in proc 0. Max # of overlaps:      13     118

siesta: E_KS(eV) =            -1515.5624

siesta: Atomic forces (eV/Ang):
----------------------------------------
   Tot   -0.035322    0.020981    0.000000
----------------------------------------
   Max    2.322617
   Res    0.809245    sqrt( Sum f_i^2 / 3N )
----------------------------------------
   Max    2.322617    constrained

Stress-tensor-Voigt (kbar):       -0.37       -0.53        0.00       -0.44       -0.00        0.00
(Free)E + p*V (eV/cell)    -1514.0804
Target enthalpy (eV/cell)    -1515.5624

                     ====================================
                        Begin CG opt. move =      2
                     ====================================

outcoor: Atomic coordinates (Ang):                          
    2.19038813    1.11972778    0.00000000   1       1  C.gga
    3.39944737    1.81078948    0.00000000   1       2  C.gga
    3.42812107    3.20230795    0.00000000   1       3  C.gga
    2.20082417    3.91913274   -0.00000000   1       4  C.gga
    1.00314128    3.22029149    0.00000000   1       5  C.gga
    0.99304019    1.83573065   -0.00000000   1       6  C.gga
    1.42674550    5.78267403   -0.00000000   2       7  H.gga
    2.17842552    0.02125449    0.00000000   2       8  H.gga
    4.35377866    1.24639675    0.00000000   2       9  H.gga
    4.38363375    3.74010202   -0.00000000   2      10  H.gga
    0.05102121    3.78387608   -0.00000000   2      11  H.gga
    0.02980839    1.29184200    0.00000000   2      12  H.gga
    2.28054262    5.29478413    0.00000000   3      13  O.gga

outcell: Unit cell vectors (Ang):
       20.000000    0.000000    0.000000
        0.000000   20.000000    0.000000
        0.000000    0.000000   20.000000

outcell: Cell vector modules (Ang)   :   20.000000   20.000000   20.000000
outcell: Cell angles (23,13,12) (deg):     90.0000     90.0000     90.0000
outcell: Cell volume (Ang**3)        :   8000.0000
<dSpData1D:S at geom step 2
  <sparsity:sparsity for geom step 2
    nrows_g=121 nrows=121 sparsity=.9981 nnzs=14613, refcount: 7>
  <dData1D:(new from dSpData1D) n=14613, refcount: 1>
refcount: 1>
new_DM -- step:     3
Re-using DM from previous geometries...
Number of DMs in history: 1
 DM extrapolation coefficients: 
1   1.00000
New DM after history re-use:
<dSpData2D:SpM extrapolated using coords
  <sparsity:sparsity for geom step 2
    nrows_g=121 nrows=121 sparsity=.9981 nnzs=14613, refcount: 8>
  <dData2D:(temp array for extrapolation) n=14613 m=1, refcount: 1>
refcount: 1>
Note: For starting DM, Qtot, Tr[D*S] =         36.00000000         36.04596201
No. of atoms with KB's overlaping orbs in proc 0. Max # of overlaps:      13     118
New grid distribution:   1
           1       1:  108    1:  108    1:  108

InitMesh: MESH =   216 x   216 x   216 =    10077696
InitMesh: (bp) =   108 x   108 x   108 =     1259712
InitMesh: Mesh cutoff (required, used) =   300.000   322.366 Ry
ExtMesh (bp) on 0 =   188 x   188 x   188 =     6644672
PhiOnMesh: Number of (b)points on node 0 =              1259712
PhiOnMesh: nlist on node 0 =              2631423

        iscf     Eharris(eV)        E_KS(eV)     FreeEng(eV)     dDmax    Ef(eV) dHmax(eV)
   scf:    1    -1515.183186    -1515.609970    -1515.609970  0.067522 -4.982533  0.404335
   scf:    2    -1515.514057    -1515.586079    -1515.586079  0.022433 -2.849301  0.789761
   scf:    3    -1515.628430    -1515.618476    -1515.618476  0.015154 -2.822051  0.023088
   scf:    4    -1515.618569    -1515.618527    -1515.618527  0.000563 -2.820746  0.011211
   scf:    5    -1515.618561    -1515.618545    -1515.618545  0.000456 -2.821334  0.005854
   scf:    6    -1515.618553    -1515.618549    -1515.618549  0.000233 -2.822214  0.003281
   scf:    7    -1515.618552    -1515.618551    -1515.618551  0.000195 -2.822919  0.000829
   scf:    8    -1515.618551    -1515.618551    -1515.618551  0.000031 -2.822936  0.000605

SCF Convergence by DM+H criterion
max |DM_out - DM_in|         :     0.0000314724
max |H_out - H_in|      (eV) :     0.0006050101
SCF cycle converged after 8 iterations

Using DM_out to compute the final energy and forces
No. of atoms with KB's overlaping orbs in proc 0. Max # of overlaps:      13     118

siesta: E_KS(eV) =            -1515.6186

siesta: Atomic forces (eV/Ang):
----------------------------------------
   Tot   -0.020242    0.024537   -0.000000
----------------------------------------
   Max    1.138872
   Res    0.419900    sqrt( Sum f_i^2 / 3N )
----------------------------------------
   Max    1.138872    constrained

Stress-tensor-Voigt (kbar):       -0.70       -0.71        0.00       -0.37       -0.00        0.00
(Free)E + p*V (eV/cell)    -1513.2759
Target enthalpy (eV/cell)    -1515.6186

cgvc: Finished line minimization    1.  Mean atomic displacement =    0.0325

                     ====================================
                        Begin CG opt. move =      3
                     ====================================

outcoor: Atomic coordinates (Ang):                          
    2.18645963    1.10819696    0.00000000   1       1  C.gga
    3.40856776    1.80858334    0.00000000   1       2  C.gga
    3.42460839    3.21272830   -0.00000000   1       3  C.gga
    2.20393417    3.93100719   -0.00000000   1       4  C.gga
    0.98341845    3.22784531   -0.00000000   1       5  C.gga
    0.98708008    1.82133698    0.00000000   1       6  C.gga
    1.42152828    5.76101470   -0.00000000   2       7  H.gga
    2.17818588    0.00618713   -0.00000000   2       8  H.gga
    4.36241477    1.24285147    0.00000000   2       9  H.gga
    4.39585619    3.75124924   -0.00000000   2      10  H.gga
    0.04087871    3.79067199   -0.00000000   2      11  H.gga
    0.01986054    1.28743534    0.00000000   2      12  H.gga
    2.30624648    5.31998616   -0.00000000   3      13  O.gga

outcell: Unit cell vectors (Ang):
       20.000000    0.000000    0.000000
        0.000000   20.000000    0.000000
        0.000000    0.000000   20.000000

outcell: Cell vector modules (Ang)   :   20.000000   20.000000   20.000000
outcell: Cell angles (23,13,12) (deg):     90.0000     90.0000     90.0000
outcell: Cell volume (Ang**3)        :   8000.0000
<dSpData1D:S at geom step 3
  <sparsity:sparsity for geom step 3
    nrows_g=121 nrows=121 sparsity=.9981 nnzs=14613, refcount: 7>
  <dData1D:(new from dSpData1D) n=14613, refcount: 1>
refcount: 1>
new_DM -- step:     4
Re-using DM from previous geometries...
Number of DMs in history: 1
 DM extrapolation coefficients: 
1   1.00000
New DM after history re-use:
<dSpData2D:SpM extrapolated using coords
  <sparsity:sparsity for geom step 3
    nrows_g=121 nrows=121 sparsity=.9981 nnzs=14613, refcount: 8>
  <dData2D:(temp array for extrapolation) n=14613 m=1, refcount: 1>
refcount: 1>
Note: For starting DM, Qtot, Tr[D*S] =         36.00000000         35.94025029
No. of atoms with KB's overlaping orbs in proc 0. Max # of overlaps:      13     118
New grid distribution:   1
           1       1:  108    1:  108    1:  108

InitMesh: MESH =   216 x   216 x   216 =    10077696
InitMesh: (bp) =   108 x   108 x   108 =     1259712
InitMesh: Mesh cutoff (required, used) =   300.000   322.366 Ry
ExtMesh (bp) on 0 =   188 x   188 x   188 =     6644672
PhiOnMesh: Number of (b)points on node 0 =              1259712
PhiOnMesh: nlist on node 0 =              2631086

        iscf     Eharris(eV)        E_KS(eV)     FreeEng(eV)     dDmax    Ef(eV) dHmax(eV)
   scf:    1    -1516.222922    -1515.686548    -1515.686548  0.055784 -4.935375  0.262313
   scf:    2    -1515.635881    -1515.673879    -1515.673879  0.013031 -2.886752  0.456043
   scf:    3    -1515.696110    -1515.690909    -1515.690909  0.008709 -4.971588  0.040462
   scf:    4    -1515.691016    -1515.690964    -1515.690964  0.000363 -4.972920  0.025309
   scf:    5    -1515.691034    -1515.691004    -1515.691004  0.000729 -4.975549  0.003788
   scf:    6    -1515.691006    -1515.691005    -1515.691005  0.000094 -4.975749  0.002323
   scf:    7    -1515.691006    -1515.691006    -1515.691006  0.000115 -4.975870  0.000754
   scf:    8    -1515.691006    -1515.691006    -1515.691006  0.000042 -4.975855  0.000303

SCF Convergence by DM+H criterion
max |DM_out - DM_in|         :     0.0000419444
max |H_out - H_in|      (eV) :     0.0003030059
SCF cycle converged after 8 iterations

Using DM_out to compute the final energy and forces
No. of atoms with KB's overlaping orbs in proc 0. Max # of overlaps:      13     118

siesta: E_KS(eV) =            -1515.6910

siesta: Atomic forces (eV/Ang):
----------------------------------------
   Tot   -0.031662    0.010747    0.000000
----------------------------------------
   Max    0.558822
   Res    0.212028    sqrt( Sum f_i^2 / 3N )
----------------------------------------
   Max    0.558822    constrained

Stress-tensor-Voigt (kbar):       -0.24        0.01        0.00       -0.05       -0.00        0.00
(Free)E + p*V (eV/cell)    -1515.3126
Target enthalpy (eV/cell)    -1515.6910

                     ====================================
                        Begin CG opt. move =      4
                     ====================================

outcoor: Atomic coordinates (Ang):                          
    2.18017403    1.08974765    0.00000000   1       1  C.gga
    3.42316038    1.80505352    0.00000000   1       2  C.gga
    3.41898811    3.22940086   -0.00000000   1       3  C.gga
    2.20891016    3.95000630   -0.00000000   1       4  C.gga
    0.95186191    3.23993142   -0.00000000   1       5  C.gga
    0.97754392    1.79830710    0.00000000   1       6  C.gga
    1.41318074    5.72635976   -0.00000000   2       7  H.gga
    2.17780246   -0.01792066   -0.00000000   2       8  H.gga
    4.37623256    1.23717903    0.00000000   2       9  H.gga
    4.41541208    3.76908479   -0.00000000   2      10  H.gga
    0.02465072    3.80154545   -0.00000000   2      11  H.gga
    0.00394399    1.28038468    0.00000000   2      12  H.gga
    2.34737266    5.36030940   -0.00000000   3      13  O.gga

outcell: Unit cell vectors (Ang):
       20.000000    0.000000    0.000000
        0.000000   20.000000    0.000000
        0.000000    0.000000   20.000000

outcell: Cell vector modules (Ang)   :   20.000000   20.000000   20.000000
outcell: Cell angles (23,13,12) (deg):     90.0000     90.0000     90.0000
outcell: Cell volume (Ang**3)        :   8000.0000
<dSpData1D:S at geom step 4
  <sparsity:sparsity for geom step 4
    nrows_g=121 nrows=121 sparsity=.9980 nnzs=14611, refcount: 7>
  <dData1D:(new from dSpData1D) n=14611, refcount: 1>
refcount: 1>
new_DM -- step:     5
Re-using DM from previous geometries...
Number of DMs in history: 1
 DM extrapolation coefficients: 
1   1.00000
New DM after history re-use:
<dSpData2D:SpM extrapolated using coords
  <sparsity:sparsity for geom step 4
    nrows_g=121 nrows=121 sparsity=.9980 nnzs=14611, refcount: 8>
  <dData2D:(temp array for extrapolation) n=14611 m=1, refcount: 1>
refcount: 1>
Note: For starting DM, Qtot, Tr[D*S] =         36.00000000         35.89031504
No. of atoms with KB's overlaping orbs in proc 0. Max # of overlaps:      13     117
New grid distribution:   1
           1       1:  108    1:  108    1:  108

InitMesh: MESH =   216 x   216 x   216 =    10077696
InitMesh: (bp) =   108 x   108 x   108 =     1259712
InitMesh: Mesh cutoff (required, used) =   300.000   322.366 Ry
ExtMesh (bp) on 0 =   188 x   188 x   188 =     6644672
PhiOnMesh: Number of (b)points on node 0 =              1259712
PhiOnMesh: nlist on node 0 =              2631151

        iscf     Eharris(eV)        E_KS(eV)     FreeEng(eV)     dDmax    Ef(eV) dHmax(eV)
   scf:    1    -1516.389452    -1515.571472    -1515.571472  0.085692 -4.938975  0.371453
   scf:    2    -1515.413678    -1515.530561    -1515.530561  0.021135 -4.985970  0.932078
   scf:    3    -1515.597854    -1515.583061    -1515.583061  0.013843 -4.957483  0.068973
   scf:    4    -1515.583428    -1515.583253    -1515.583253  0.000796 -4.958064  0.043466
   scf:    5    -1515.583467    -1515.583377    -1515.583377  0.001274 -4.959067  0.005225
   scf:    6    -1515.583383    -1515.583380    -1515.583380  0.000197 -4.959321  0.003649
   scf:    7    -1515.583384    -1515.583382    -1515.583382  0.000229 -4.959576  0.001392
   scf:    8    -1515.583382    -1515.583382    -1515.583382  0.000085 -4.959612  0.000580

SCF Convergence by DM+H criterion
max |DM_out - DM_in|         :     0.0000852035
max |H_out - H_in|      (eV) :     0.0005795965
SCF cycle converged after 8 iterations

Using DM_out to compute the final energy and forces
No. of atoms with KB's overlaping orbs in proc 0. Max # of overlaps:      13     117

siesta: E_KS(eV) =            -1515.5834

siesta: Atomic forces (eV/Ang):
----------------------------------------
   Tot    0.039613   -0.034086    0.000000
----------------------------------------
   Max    2.008165
   Res    0.670399    sqrt( Sum f_i^2 / 3N )
----------------------------------------
   Max    2.008165    constrained

Stress-tensor-Voigt (kbar):        0.48        1.03        0.00        0.41       -0.00        0.00
(Free)E + p*V (eV/cell)    -1518.1078
Target enthalpy (eV/cell)    -1515.5834

                     ====================================
                        Begin CG opt. move =      5
                     ====================================

outcoor: Atomic coordinates (Ang):                          
    2.18580780    1.10628372    0.00000000   1       1  C.gga
    3.41008105    1.80821729    0.00000000   1       2  C.gga
    3.42402556    3.21445729   -0.00000000   1       3  C.gga
    2.20445019    3.93297744   -0.00000000   1       4  C.gga
    0.98014596    3.22909867   -0.00000000   1       5  C.gga
    0.98609116    1.81894872    0.00000000   1       6  C.gga
    1.42066262    5.75742089   -0.00000000   2       7  H.gga
    2.17814612    0.00368709   -0.00000000   2       8  H.gga
    4.36384771    1.24226323    0.00000000   2       9  H.gga
    4.39788418    3.75309883   -0.00000000   2      10  H.gga
    0.03919583    3.79179960   -0.00000000   2      11  H.gga
    0.01820996    1.28670417    0.00000000   2      12  H.gga
    2.31051137    5.32416778   -0.00000000   3      13  O.gga

outcell: Unit cell vectors (Ang):
       20.000000    0.000000    0.000000
        0.000000   20.000000    0.000000
        0.000000    0.000000   20.000000

outcell: Cell vector modules (Ang)   :   20.000000   20.000000   20.000000
outcell: Cell angles (23,13,12) (deg):     90.0000     90.0000     90.0000
outcell: Cell volume (Ang**3)        :   8000.0000
<dSpData1D:S at geom step 5
  <sparsity:sparsity for geom step 5
    nrows_g=121 nrows=121 sparsity=.9980 nnzs=14611, refcount: 7>
  <dData1D:(new from dSpData1D) n=14611, refcount: 1>
refcount: 1>
new_DM -- step:     6
Re-using DM from previous geometries...
Number of DMs in history: 1
 DM extrapolation coefficients: 
1   1.00000
New DM after history re-use:
<dSpData2D:SpM extrapolated using coords
  <sparsity:sparsity for geom step 5
    nrows_g=121 nrows=121 sparsity=.9980 nnzs=14611, refcount: 8>
  <dData2D:(temp array for extrapolation) n=14611 m=1, refcount: 1>
refcount: 1>
Note: For starting DM, Qtot, Tr[D*S] =         36.00000000         36.09357241
No. of atoms with KB's overlaping orbs in proc 0. Max # of overlaps:      13     117
New grid distribution:   1
           1       1:  108    1:  108    1:  108

InitMesh: MESH =   216 x   216 x   216 =    10077696
InitMesh: (bp) =   108 x   108 x   108 =     1259712
InitMesh: Mesh cutoff (required, used) =   300.000   322.366 Ry
ExtMesh (bp) on 0 =   188 x   188 x   188 =     6644672
PhiOnMesh: Number of (b)points on node 0 =              1259712
PhiOnMesh: nlist on node 0 =              2631051

        iscf     Eharris(eV)        E_KS(eV)     FreeEng(eV)     dDmax    Ef(eV) dHmax(eV)
   scf:    1    -1514.942063    -1515.681730    -1515.681730  0.076624 -2.885786  0.427068
   scf:    2    -1515.552787    -1515.649058    -1515.649058  0.021301 -4.870072  0.791970
   scf:    3    -1515.705130    -1515.692177    -1515.692177  0.014305 -4.979856  0.057459
   scf:    4    -1515.692403    -1515.692295    -1515.692295  0.000517 -4.977889  0.036158
   scf:    5    -1515.692440    -1515.692378    -1515.692378  0.000887 -4.974947  0.004214
   scf:    6    -1515.692382    -1515.692380    -1515.692380  0.000140 -4.974761  0.003054
   scf:    7    -1515.692382    -1515.692381    -1515.692381  0.000159 -4.974557  0.001267
   scf:    8    -1515.692381    -1515.692381    -1515.692381  0.000065 -4.974508  0.000478

SCF Convergence by DM+H criterion
max |DM_out - DM_in|         :     0.0000648034
max |H_out - H_in|      (eV) :     0.0004782518
SCF cycle converged after 8 iterations

Using DM_out to compute the final energy and forces
No. of atoms with KB's overlaping orbs in proc 0. Max # of overlaps:      13     117

siesta: E_KS(eV) =            -1515.6924

siesta: Atomic forces (eV/Ang):
----------------------------------------
   Tot   -0.023305    0.004275   -0.000000
----------------------------------------
   Max    0.539548
   Res    0.232682    sqrt( Sum f_i^2 / 3N )
----------------------------------------
   Max    0.539548    constrained

Stress-tensor-Voigt (kbar):       -0.16        0.12        0.00       -0.00        0.00       -0.00
(Free)E + p*V (eV/cell)    -1515.6305
Target enthalpy (eV/cell)    -1515.6924

cgvc: Finished line minimization    2.  Mean atomic displacement =    0.0379

                     ====================================
                        Begin CG opt. move =      6
                     ====================================

outcoor: Atomic coordinates (Ang):                          
    2.20130206    1.08859415    0.00000000   1       1  C.gga
    3.41357763    1.80513734    0.00000000   1       2  C.gga
    3.43938618    3.22076525   -0.00000000   1       3  C.gga
    2.21157184    3.96322430   -0.00000000   1       4  C.gga
    0.98279582    3.23625691   -0.00000000   1       5  C.gga
    0.96064851    1.82377510    0.00000000   1       6  C.gga
    1.43452221    5.72212160   -0.00000000   2       7  H.gga
    2.17794826   -0.01176392   -0.00000000   2       8  H.gga
    4.36896351    1.24392773    0.00000000   2       9  H.gga
    4.39445257    3.76205320    0.00000000   2      10  H.gga
    0.01550750    3.80302121    0.00000000   2      11  H.gga
    0.00843172    1.28044943   -0.00000000   2      12  H.gga
    2.30902595    5.33185635   -0.00000000   3      13  O.gga

outcell: Unit cell vectors (Ang):
       20.000000    0.000000    0.000000
        0.000000   20.000000    0.000000
        0.000000    0.000000   20.000000

outcell: Cell vector modules (Ang)   :   20.000000   20.000000   20.000000
outcell: Cell angles (23,13,12) (deg):     90.0000     90.0000     90.0000
outcell: Cell volume (Ang**3)        :   8000.0000
<dSpData1D:S at geom step 6
  <sparsity:sparsity for geom step 6
    nrows_g=121 nrows=121 sparsity=.9980 nnzs=14611, refcount: 7>
  <dData1D:(new from dSpData1D) n=14611, refcount: 1>
refcount: 1>
new_DM -- step:     7
Re-using DM from previous geometries...
Number of DMs in history: 1
 DM extrapolation coefficients: 
1   1.00000
New DM after history re-use:
<dSpData2D:SpM extrapolated using coords
  <sparsity:sparsity for geom step 6
    nrows_g=121 nrows=121 sparsity=.9980 nnzs=14611, refcount: 8>
  <dData2D:(temp array for extrapolation) n=14611 m=1, refcount: 1>
refcount: 1>
Note: For starting DM, Qtot, Tr[D*S] =         36.00000000         35.95781098
No. of atoms with KB's overlaping orbs in proc 0. Max # of overlaps:      13     117
New grid distribution:   1
           1       1:  108    1:  108    1:  108

InitMesh: MESH =   216 x   216 x   216 =    10077696
InitMesh: (bp) =   108 x   108 x   108 =     1259712
InitMesh: Mesh cutoff (required, used) =   300.000   322.366 Ry
ExtMesh (bp) on 0 =   188 x   188 x   188 =     6644672
PhiOnMesh: Number of (b)points on node 0 =              1259712
PhiOnMesh: nlist on node 0 =              2631630

        iscf     Eharris(eV)        E_KS(eV)     FreeEng(eV)     dDmax    Ef(eV) dHmax(eV)
   scf:    1    -1515.277582    -1515.587524    -1515.587524  0.062761 -2.952180  1.666384
   scf:    2    -1514.264712    -1515.231892    -1515.231892  0.127747 -1.853109  3.776770
   scf:    3    -1515.790576    -1515.663560    -1515.663560  0.085172 -3.277718  0.065928
   scf:    4    -1515.664053    -1515.663823    -1515.663823  0.001667 -3.284531  0.045664
   scf:    5    -1515.664065    -1515.663958    -1515.663958  0.002149 -3.297623  0.014531
   scf:    6    -1515.663981    -1515.663970    -1515.663970  0.000920 -3.303875  0.004419
   scf:    7    -1515.663973    -1515.663972    -1515.663972  0.000275 -3.305323  0.001478
   scf:    8    -1515.663972    -1515.663972    -1515.663972  0.000147 -3.305681  0.000835
   scf:    9    -1515.663972    -1515.663972    -1515.663972  0.000079 -3.305680  0.000467

SCF Convergence by DM+H criterion
max |DM_out - DM_in|         :     0.0000791670
max |H_out - H_in|      (eV) :     0.0004673786
SCF cycle converged after 9 iterations

Using DM_out to compute the final energy and forces
No. of atoms with KB's overlaping orbs in proc 0. Max # of overlaps:      13     117

siesta: E_KS(eV) =            -1515.6640

siesta: Atomic forces (eV/Ang):
----------------------------------------
   Tot   -0.027512   -0.014583   -0.000000
----------------------------------------
   Max    1.557652
   Res    0.486821    sqrt( Sum f_i^2 / 3N )
----------------------------------------
   Max    1.557652    constrained

Stress-tensor-Voigt (kbar):        0.21        0.36        0.00       -0.14        0.00        0.00
(Free)E + p*V (eV/cell)    -1516.6347
Target enthalpy (eV/cell)    -1515.6640

                     ====================================
                        Begin CG opt. move =      7
                     ====================================

outcoor: Atomic coordinates (Ang):                          
    2.19177748    1.09946823    0.00000000   1       1  C.gga
    3.41142823    1.80703063    0.00000000   1       2  C.gga
    3.42994375    3.21688764   -0.00000000   1       3  C.gga
    2.20719404    3.94463105   -0.00000000   1       4  C.gga
    0.98116690    3.23185662   -0.00000000   1       5  C.gga
    0.97628853    1.82080825    0.00000000   1       6  C.gga
    1.42600249    5.74382067   -0.00000000   2       7  H.gga
    2.17806989   -0.00226592   -0.00000000   2       8  H.gga
    4.36581874    1.24290453    0.00000000   2       9  H.gga
    4.39656204    3.75654880   -0.00000000   2      10  H.gga
    0.03006911    3.79612309   -0.00000000   2      11  H.gga
    0.01444256    1.28429432   -0.00000000   2      12  H.gga
    2.30993906    5.32713006   -0.00000000   3      13  O.gga

outcell: Unit cell vectors (Ang):
       20.000000    0.000000    0.000000
        0.000000   20.000000    0.000000
        0.000000    0.000000   20.000000

outcell: Cell vector modules (Ang)   :   20.000000   20.000000   20.000000
outcell: Cell angles (23,13,12) (deg):     90.0000     90.0000     90.0000
outcell: Cell volume (Ang**3)        :   8000.0000
<dSpData1D:S at geom step 7
  <sparsity:sparsity for geom step 7
    nrows_g=121 nrows=121 sparsity=.9980 nnzs=14611, refcount: 7>
  <dData1D:(new from dSpData1D) n=14611, refcount: 1>
refcount: 1>
new_DM -- step:     8
Re-using DM from previous geometries...
Number of DMs in history: 1
 DM extrapolation coefficients: 
1   1.00000
New DM after history re-use:
<dSpData2D:SpM extrapolated using coords
  <sparsity:sparsity for geom step 7
    nrows_g=121 nrows=121 sparsity=.9980 nnzs=14611, refcount: 8>
  <dData2D:(temp array for extrapolation) n=14611 m=1, refcount: 1>
refcount: 1>
No. of atoms with KB's overlaping orbs in proc 0. Max # of overlaps:      13     117
New grid distribution:   1
           1       1:  108    1:  108    1:  108

InitMesh: MESH =   216 x   216 x   216 =    10077696
InitMesh: (bp) =   108 x   108 x   108 =     1259712
InitMesh: Mesh cutoff (required, used) =   300.000   322.366 Ry
ExtMesh (bp) on 0 =   188 x   188 x   188 =     6644672
PhiOnMesh: Number of (b)points on node 0 =              1259712
PhiOnMesh: nlist on node 0 =              2631085

        iscf     Eharris(eV)        E_KS(eV)     FreeEng(eV)     dDmax    Ef(eV) dHmax(eV)
   scf:    1    -1515.709423    -1515.679690    -1515.679690  0.035547 -3.231283  1.043251
   scf:    2    -1515.129748    -1515.529762    -1515.529762  0.085275 -4.710000  2.460671
   scf:    3    -1515.758037    -1515.709046    -1515.709046  0.060736 -3.030541  0.058792
   scf:    4    -1515.709254    -1515.709160    -1515.709160  0.001230 -3.019490  0.032153
   scf:    5    -1515.709247    -1515.709207    -1515.709207  0.001199 -3.010795  0.011287
   scf:    6    -1515.709222    -1515.709215    -1515.709215  0.000676 -3.006795  0.003405
   scf:    7    -1515.709217    -1515.709216    -1515.709216  0.000310 -3.005317  0.000986
   scf:    8    -1515.709216    -1515.709216    -1515.709216  0.000088 -3.005129  0.000570

SCF Convergence by DM+H criterion
max |DM_out - DM_in|         :     0.0000883311
max |H_out - H_in|      (eV) :     0.0005703499
SCF cycle converged after 8 iterations

Using DM_out to compute the final energy and forces
No. of atoms with KB's overlaping orbs in proc 0. Max # of overlaps:      13     117

siesta: E_KS(eV) =            -1515.7092

siesta: Atomic forces (eV/Ang):
----------------------------------------
   Tot   -0.024003   -0.004317   -0.000000
----------------------------------------
   Max    0.339560
   Res    0.124395    sqrt( Sum f_i^2 / 3N )
----------------------------------------
   Max    0.339560    constrained

Stress-tensor-Voigt (kbar):        0.00        0.22        0.00       -0.07        0.00        0.00
(Free)E + p*V (eV/cell)    -1516.0924
Target enthalpy (eV/cell)    -1515.7092

cgvc: Finished line minimization    3.  Mean atomic displacement =    0.0146

                     ====================================
                        Begin CG opt. move =      8
                     ====================================

outcoor: Atomic coordinates (Ang):                          
    2.18785509    1.10196661   -0.00000000   1       1  C.gga
    3.41149179    1.80775954   -0.00000000   1       2  C.gga
    3.43096399    3.21834861   -0.00000000   1       3  C.gga
    2.21674226    3.94765958   -0.00000000   1       4  C.gga
    0.98501259    3.24035412   -0.00000000   1       5  C.gga
    0.98085586    1.82486982    0.00000000   1       6  C.gga
    1.42697199    5.72959834    0.00000000   2       7  H.gga
    2.17884285   -0.01081049   -0.00000000   2       8  H.gga
    4.36749787    1.24567453    0.00000000   2       9  H.gga
    4.39390501    3.76173457    0.00000000   2      10  H.gga
    0.02081698    3.79971650    0.00000000   2      11  H.gga
    0.00644851    1.28006816    0.00000000   2      12  H.gga
    2.31036890    5.32223343   -0.00000000   3      13  O.gga

outcell: Unit cell vectors (Ang):
       20.000000    0.000000    0.000000
        0.000000   20.000000    0.000000
        0.000000    0.000000   20.000000

outcell: Cell vector modules (Ang)   :   20.000000   20.000000   20.000000
outcell: Cell angles (23,13,12) (deg):     90.0000     90.0000     90.0000
outcell: Cell volume (Ang**3)        :   8000.0000
<dSpData1D:S at geom step 8
  <sparsity:sparsity for geom step 8
    nrows_g=121 nrows=121 sparsity=.9980 nnzs=14611, refcount: 7>
  <dData1D:(new from dSpData1D) n=14611, refcount: 1>
refcount: 1>
new_DM -- step:     9
Re-using DM from previous geometries...
Number of DMs in history: 1
 DM extrapolation coefficients: 
1   1.00000
New DM after history re-use:
<dSpData2D:SpM extrapolated using coords
  <sparsity:sparsity for geom step 8
    nrows_g=121 nrows=121 sparsity=.9980 nnzs=14611, refcount: 8>
  <dData2D:(temp array for extrapolation) n=14611 m=1, refcount: 1>
refcount: 1>
No. of atoms with KB's overlaping orbs in proc 0. Max # of overlaps:      13     117
New grid distribution:   1
           1       1:  108    1:  108    1:  108

InitMesh: MESH =   216 x   216 x   216 =    10077696
InitMesh: (bp) =   108 x   108 x   108 =     1259712
InitMesh: Mesh cutoff (required, used) =   300.000   322.366 Ry
ExtMesh (bp) on 0 =   188 x   188 x   188 =     6644672
PhiOnMesh: Number of (b)points on node 0 =              1259712
PhiOnMesh: nlist on node 0 =              2631351

        iscf     Eharris(eV)        E_KS(eV)     FreeEng(eV)     dDmax    Ef(eV) dHmax(eV)
   scf:    1    -1515.616021    -1515.702490    -1515.702490  0.015072 -2.978622  0.494500
   scf:    2    -1515.455764    -1515.634049    -1515.634049  0.037870 -3.347671  1.178645
   scf:    3    -1515.735502    -1515.713950    -1515.713950  0.026617 -3.088600  0.023230
   scf:    4    -1515.714011    -1515.713983    -1515.713983  0.000448 -3.093136  0.014774
   scf:    5    -1515.714010    -1515.713998    -1515.713998  0.000626 -3.097840  0.004578
   scf:    6    -1515.714000    -1515.713999    -1515.713999  0.000201 -3.098737  0.002018
   scf:    7    -1515.713999    -1515.713999    -1515.713999  0.000144 -3.099283  0.000538
   scf:    8    -1515.713999    -1515.713999    -1515.713999  0.000028 -3.099356  0.000372

SCF Convergence by DM+H criterion
max |DM_out - DM_in|         :     0.0000281044
max |H_out - H_in|      (eV) :     0.0003724865
SCF cycle converged after 8 iterations

Using DM_out to compute the final energy and forces
No. of atoms with KB's overlaping orbs in proc 0. Max # of overlaps:      13     117

siesta: E_KS(eV) =            -1515.7140

siesta: Atomic forces (eV/Ang):
----------------------------------------
   Tot   -0.023893    0.009506    0.000000
----------------------------------------
   Max    0.329488
   Res    0.126800    sqrt( Sum f_i^2 / 3N )
----------------------------------------
   Max    0.329488    constrained

Stress-tensor-Voigt (kbar):        0.03        0.27        0.00        0.02       -0.00        0.00
(Free)E + p*V (eV/cell)    -1516.2198
Target enthalpy (eV/cell)    -1515.7140

                     ====================================
                        Begin CG opt. move =      9
                     ====================================

outcoor: Atomic coordinates (Ang):                          
    2.18907541    1.10118932   -0.00000000   1       1  C.gga
    3.41147202    1.80753276   -0.00000000   1       2  C.gga
    3.43064657    3.21789408   -0.00000000   1       3  C.gga
    2.21377165    3.94671735   -0.00000000   1       4  C.gga
    0.98381614    3.23771040   -0.00000000   1       5  C.gga
    0.97943489    1.82360619    0.00000000   1       6  C.gga
    1.42667036    5.73402315    0.00000000   2       7  H.gga
    2.17860237   -0.00815213   -0.00000000   2       8  H.gga
    4.36697547    1.24481274    0.00000000   2       9  H.gga
    4.39473166    3.76012119    0.00000000   2      10  H.gga
    0.02369547    3.79859853    0.00000000   2      11  H.gga
    0.00893560    1.28138299    0.00000000   2      12  H.gga
    2.31023517    5.32375685   -0.00000000   3      13  O.gga

outcell: Unit cell vectors (Ang):
       20.000000    0.000000    0.000000
        0.000000   20.000000    0.000000
        0.000000    0.000000   20.000000

outcell: Cell vector modules (Ang)   :   20.000000   20.000000   20.000000
outcell: Cell angles (23,13,12) (deg):     90.0000     90.0000     90.0000
outcell: Cell volume (Ang**3)        :   8000.0000
<dSpData1D:S at geom step 9
  <sparsity:sparsity for geom step 9
    nrows_g=121 nrows=121 sparsity=.9980 nnzs=14611, refcount: 7>
  <dData1D:(new from dSpData1D) n=14611, refcount: 1>
refcount: 1>
new_DM -- step:    10
Re-using DM from previous geometries...
Number of DMs in history: 1
 DM extrapolation coefficients: 
1   1.00000
New DM after history re-use:
<dSpData2D:SpM extrapolated using coords
  <sparsity:sparsity for geom step 9
    nrows_g=121 nrows=121 sparsity=.9980 nnzs=14611, refcount: 8>
  <dData2D:(temp array for extrapolation) n=14611 m=1, refcount: 1>
refcount: 1>
No. of atoms with KB's overlaping orbs in proc 0. Max # of overlaps:      13     117
New grid distribution:   1
           1       1:  108    1:  108    1:  108

InitMesh: MESH =   216 x   216 x   216 =    10077696
InitMesh: (bp) =   108 x   108 x   108 =     1259712
InitMesh: Mesh cutoff (required, used) =   300.000   322.366 Ry
ExtMesh (bp) on 0 =   188 x   188 x   188 =     6644672
PhiOnMesh: Number of (b)points on node 0 =              1259712
PhiOnMesh: nlist on node 0 =              2631335

        iscf     Eharris(eV)        E_KS(eV)     FreeEng(eV)     dDmax    Ef(eV) dHmax(eV)
   scf:    1    -1515.731300    -1515.714131    -1515.714131  0.004651 -3.107733  0.155070
   scf:    2    -1515.689884    -1515.707399    -1515.707399  0.012020 -2.992306  0.371440
   scf:    3    -1515.717359    -1515.715251    -1515.715251  0.008528 -3.073343  0.007543
   scf:    4    -1515.715257    -1515.715254    -1515.715254  0.000138 -3.071795  0.004701
   scf:    5    -1515.715257    -1515.715256    -1515.715256  0.000195 -3.070279  0.001446
   scf:    6    -1515.715256    -1515.715256    -1515.715256  0.000064 -3.070002  0.000644

SCF Convergence by DM+H criterion
max |DM_out - DM_in|         :     0.0000644669
max |H_out - H_in|      (eV) :     0.0006437858
SCF cycle converged after 6 iterations

Using DM_out to compute the final energy and forces
No. of atoms with KB's overlaping orbs in proc 0. Max # of overlaps:      13     117

siesta: E_KS(eV) =            -1515.7153

siesta: Atomic forces (eV/Ang):
----------------------------------------
   Tot   -0.025545    0.006534   -0.000000
----------------------------------------
   Max    0.227550
   Res    0.081182    sqrt( Sum f_i^2 / 3N )
----------------------------------------
   Max    0.227550    constrained

Stress-tensor-Voigt (kbar):        0.02        0.26        0.00       -0.00        0.00       -0.00
(Free)E + p*V (eV/cell)    -1516.1858
Target enthalpy (eV/cell)    -1515.7153

cgvc: Finished line minimization    4.  Mean atomic displacement =    0.0101

                     ====================================
                        Begin CG opt. move =     10
                     ====================================

outcoor: Atomic coordinates (Ang):                          
    2.18756252    1.09993780    0.00000000   1       1  C.gga
    3.40982439    1.80953036    0.00000000   1       2  C.gga
    3.43234165    3.21558634   -0.00000000   1       3  C.gga
    2.21603225    3.94086719    0.00000000   1       4  C.gga
    0.98520244    3.24512208   -0.00000000   1       5  C.gga
    0.97739850    1.82835039   -0.00000000   1       6  C.gga
    1.42137807    5.72399400   -0.00000000   2       7  H.gga
    2.17916554   -0.00892503   -0.00000000   2       8  H.gga
    4.36769977    1.24816798    0.00000000   2       9  H.gga
    4.39311032    3.76524796    0.00000000   2      10  H.gga
    0.02207672    3.79909665   -0.00000000   2      11  H.gga
    0.00867997    1.28238537    0.00000000   2      12  H.gga
    2.31642771    5.32000924    0.00000000   3      13  O.gga

outcell: Unit cell vectors (Ang):
       20.000000    0.000000    0.000000
        0.000000   20.000000    0.000000
        0.000000    0.000000   20.000000

outcell: Cell vector modules (Ang)   :   20.000000   20.000000   20.000000
outcell: Cell angles (23,13,12) (deg):     90.0000     90.0000     90.0000
outcell: Cell volume (Ang**3)        :   8000.0000
<dSpData1D:S at geom step 10
  <sparsity:sparsity for geom step 10
    nrows_g=121 nrows=121 sparsity=.9980 nnzs=14611, refcount: 7>
  <dData1D:(new from dSpData1D) n=14611, refcount: 1>
refcount: 1>
new_DM -- step:    11
Re-using DM from previous geometries...
Number of DMs in history: 1
 DM extrapolation coefficients: 
1   1.00000
New DM after history re-use:
<dSpData2D:SpM extrapolated using coords
  <sparsity:sparsity for geom step 10
    nrows_g=121 nrows=121 sparsity=.9980 nnzs=14611, refcount: 8>
  <dData2D:(temp array for extrapolation) n=14611 m=1, refcount: 1>
refcount: 1>
No. of atoms with KB's overlaping orbs in proc 0. Max # of overlaps:      13     117
New grid distribution:   1
           1       1:  108    1:  108    1:  108

InitMesh: MESH =   216 x   216 x   216 =    10077696
InitMesh: (bp) =   108 x   108 x   108 =     1259712
InitMesh: Mesh cutoff (required, used) =   300.000   322.366 Ry
ExtMesh (bp) on 0 =   188 x   188 x   188 =     6644672
PhiOnMesh: Number of (b)points on node 0 =              1259712
PhiOnMesh: nlist on node 0 =              2631175

        iscf     Eharris(eV)        E_KS(eV)     FreeEng(eV)     dDmax    Ef(eV) dHmax(eV)
   scf:    1    -1515.790134    -1515.716869    -1515.716869  0.013569 -3.054849  0.152682
   scf:    2    -1515.692858    -1515.710544    -1515.710544  0.010904 -2.982993  0.358724
   scf:    3    -1515.720791    -1515.718454    -1515.718454  0.007046 -3.028063  0.020222
   scf:    4    -1515.718474    -1515.718465    -1515.718465  0.000251 -3.026064  0.011082
   scf:    5    -1515.718474    -1515.718470    -1515.718470  0.000300 -3.023862  0.001572
   scf:    6    -1515.718470    -1515.718470    -1515.718470  0.000072 -3.023459  0.000776

SCF Convergence by DM+H criterion
max |DM_out - DM_in|         :     0.0000724120
max |H_out - H_in|      (eV) :     0.0007760050
SCF cycle converged after 6 iterations

Using DM_out to compute the final energy and forces
No. of atoms with KB's overlaping orbs in proc 0. Max # of overlaps:      13     117

siesta: E_KS(eV) =            -1515.7185

siesta: Atomic forces (eV/Ang):
----------------------------------------
   Tot   -0.006529    0.013747    0.000000
----------------------------------------
   Max    0.240044
   Res    0.084409    sqrt( Sum f_i^2 / 3N )
----------------------------------------
   Max    0.240044    constrained

Stress-tensor-Voigt (kbar):        0.08        0.22        0.00       -0.03        0.00       -0.00
(Free)E + p*V (eV/cell)    -1516.2232
Target enthalpy (eV/cell)    -1515.7185

                     ====================================
                        Begin CG opt. move =     11
                     ====================================

outcoor: Atomic coordinates (Ang):                          
    2.18780312    1.10013682    0.00000000   1       1  C.gga
    3.41008641    1.80921269    0.00000000   1       2  C.gga
    3.43207208    3.21595333   -0.00000000   1       3  C.gga
    2.21567275    3.94179753    0.00000000   1       4  C.gga
    0.98498198    3.24394342   -0.00000000   1       5  C.gga
    0.97772235    1.82759593   -0.00000000   1       6  C.gga
    1.42221969    5.72558891   -0.00000000   2       7  H.gga
    2.17907598   -0.00880212   -0.00000000   2       8  H.gga
    4.36758459    1.24763440    0.00000000   2       9  H.gga
    4.39336816    3.76443266    0.00000000   2      10  H.gga
    0.02233415    3.79901743   -0.00000000   2      11  H.gga
    0.00872062    1.28222596    0.00000000   2      12  H.gga
    2.31544292    5.32060522    0.00000000   3      13  O.gga

outcell: Unit cell vectors (Ang):
       20.000000    0.000000    0.000000
        0.000000   20.000000    0.000000
        0.000000    0.000000   20.000000

outcell: Cell vector modules (Ang)   :   20.000000   20.000000   20.000000
outcell: Cell angles (23,13,12) (deg):     90.0000     90.0000     90.0000
outcell: Cell volume (Ang**3)        :   8000.0000
<dSpData1D:S at geom step 11
  <sparsity:sparsity for geom step 11
    nrows_g=121 nrows=121 sparsity=.9980 nnzs=14611, refcount: 7>
  <dData1D:(new from dSpData1D) n=14611, refcount: 1>
refcount: 1>
new_DM -- step:    12
Re-using DM from previous geometries...
Number of DMs in history: 1
 DM extrapolation coefficients: 
1   1.00000
New DM after history re-use:
<dSpData2D:SpM extrapolated using coords
  <sparsity:sparsity for geom step 11
    nrows_g=121 nrows=121 sparsity=.9980 nnzs=14611, refcount: 8>
  <dData2D:(temp array for extrapolation) n=14611 m=1, refcount: 1>
refcount: 1>
No. of atoms with KB's overlaping orbs in proc 0. Max # of overlaps:      13     117
New grid distribution:   1
           1       1:  108    1:  108    1:  108

InitMesh: MESH =   216 x   216 x   216 =    10077696
InitMesh: (bp) =   108 x   108 x   108 =     1259712
InitMesh: Mesh cutoff (required, used) =   300.000   322.366 Ry
ExtMesh (bp) on 0 =   188 x   188 x   188 =     6644672
PhiOnMesh: Number of (b)points on node 0 =              1259712
PhiOnMesh: nlist on node 0 =              2631148

        iscf     Eharris(eV)        E_KS(eV)     FreeEng(eV)     dDmax    Ef(eV) dHmax(eV)
   scf:    1    -1515.706501    -1515.718552    -1515.718552  0.002261 -3.025388  0.024021
   scf:    2    -1515.717958    -1515.718395    -1515.718395  0.001691 -3.036638  0.056545
   scf:    3    -1515.718649    -1515.718591    -1515.718591  0.001080 -3.029591  0.003195
   scf:    4    -1515.718591    -1515.718591    -1515.718591  0.000039 -3.029903  0.001772
   scf:    5    -1515.718591    -1515.718591    -1515.718591  0.000051 -3.030273  0.000241

SCF Convergence by DM+H criterion
max |DM_out - DM_in|         :     0.0000509502
max |H_out - H_in|      (eV) :     0.0002408245
SCF cycle converged after 5 iterations

Using DM_out to compute the final energy and forces
No. of atoms with KB's overlaping orbs in proc 0. Max # of overlaps:      13     117

siesta: E_KS(eV) =            -1515.7186

siesta: Atomic forces (eV/Ang):
----------------------------------------
   Tot   -0.008799    0.012939   -0.000000
----------------------------------------
   Max    0.224548
   Res    0.069828    sqrt( Sum f_i^2 / 3N )
----------------------------------------
   Max    0.224548    constrained

Stress-tensor-Voigt (kbar):        0.07        0.23        0.00       -0.03       -0.00        0.00
(Free)E + p*V (eV/cell)    -1516.2187
Target enthalpy (eV/cell)    -1515.7186

cgvc: Finished line minimization    5.  Mean atomic displacement =    0.0085

                     ====================================
                        Begin CG opt. move =     12
                     ====================================

outcoor: Atomic coordinates (Ang):                          
    2.18524171    1.10163292   -0.00000000   1       1  C.gga
    3.40954886    1.80702285   -0.00000000   1       2  C.gga
    3.43462434    3.21417786    0.00000000   1       3  C.gga
    2.21737991    3.93931960    0.00000000   1       4  C.gga
    0.98283690    3.24446593    0.00000000   1       5  C.gga
    0.97606930    1.83138113   -0.00000000   1       6  C.gga
    1.42148044    5.71374240   -0.00000000   2       7  H.gga
    2.17929591   -0.00729601   -0.00000000   2       8  H.gga
    4.36717734    1.25153951    0.00000000   2       9  H.gga
    4.39165784    3.76912668    0.00000000   2      10  H.gga
    0.02326847    3.79984209   -0.00000000   2      11  H.gga
    0.01073849    1.28574312    0.00000000   2      12  H.gga
    2.31682965    5.31908119   -0.00000000   3      13  O.gga

outcell: Unit cell vectors (Ang):
       20.000000    0.000000    0.000000
        0.000000   20.000000    0.000000
        0.000000    0.000000   20.000000

outcell: Cell vector modules (Ang)   :   20.000000   20.000000   20.000000
outcell: Cell angles (23,13,12) (deg):     90.0000     90.0000     90.0000
outcell: Cell volume (Ang**3)        :   8000.0000
<dSpData1D:S at geom step 12
  <sparsity:sparsity for geom step 12
    nrows_g=121 nrows=121 sparsity=.9980 nnzs=14611, refcount: 7>
  <dData1D:(new from dSpData1D) n=14611, refcount: 1>
refcount: 1>
new_DM -- step:    13
Re-using DM from previous geometries...
Number of DMs in history: 1
 DM extrapolation coefficients: 
1   1.00000
New DM after history re-use:
<dSpData2D:SpM extrapolated using coords
  <sparsity:sparsity for geom step 12
    nrows_g=121 nrows=121 sparsity=.9980 nnzs=14611, refcount: 8>
  <dData2D:(temp array for extrapolation) n=14611 m=1, refcount: 1>
refcount: 1>
No. of atoms with KB's overlaping orbs in proc 0. Max # of overlaps:      13     117
New grid distribution:   1
           1       1:  108    1:  108    1:  108

InitMesh: MESH =   216 x   216 x   216 =    10077696
InitMesh: (bp) =   108 x   108 x   108 =     1259712
InitMesh: Mesh cutoff (required, used) =   300.000   322.366 Ry
ExtMesh (bp) on 0 =   188 x   188 x   188 =     6644672
PhiOnMesh: Number of (b)points on node 0 =              1259712
PhiOnMesh: nlist on node 0 =              2631086

        iscf     Eharris(eV)        E_KS(eV)     FreeEng(eV)     dDmax    Ef(eV) dHmax(eV)
   scf:    1    -1515.698186    -1515.721309    -1515.721309  0.008553 -3.062988  0.088413
   scf:    2    -1515.712828    -1515.719013    -1515.719013  0.005501 -3.003074  0.190146
   scf:    3    -1515.722549    -1515.721784    -1515.721784  0.003891 -3.044864  0.005905
   scf:    4    -1515.721788    -1515.721786    -1515.721786  0.000086 -3.044188  0.003406
   scf:    5    -1515.721788    -1515.721787    -1515.721787  0.000107 -3.043684  0.001266
   scf:    6    -1515.721788    -1515.721787    -1515.721787  0.000048 -3.043575  0.000666

SCF Convergence by DM+H criterion
max |DM_out - DM_in|         :     0.0000475766
max |H_out - H_in|      (eV) :     0.0006661139
SCF cycle converged after 6 iterations

Using DM_out to compute the final energy and forces
No. of atoms with KB's overlaping orbs in proc 0. Max # of overlaps:      13     117

siesta: E_KS(eV) =            -1515.7218

siesta: Atomic forces (eV/Ang):
----------------------------------------
   Tot   -0.005830    0.017238   -0.000000
----------------------------------------
   Max    0.135829
   Res    0.042608    sqrt( Sum f_i^2 / 3N )
----------------------------------------
   Max    0.135829    constrained

Stress-tensor-Voigt (kbar):        0.04        0.17        0.00       -0.00       -0.00        0.00
(Free)E + p*V (eV/cell)    -1516.0721
Target enthalpy (eV/cell)    -1515.7218

                     ====================================
                        Begin CG opt. move =     13
                     ====================================

outcoor: Atomic coordinates (Ang):                          
    2.18114346    1.10402667   -0.00000000   1       1  C.gga
    3.40868879    1.80351911   -0.00000000   1       2  C.gga
    3.43870795    3.21133710    0.00000000   1       3  C.gga
    2.22011136    3.93535493    0.00000000   1       4  C.gga
    0.97940478    3.24530195    0.00000000   1       5  C.gga
    0.97342441    1.83743745   -0.00000000   1       6  C.gga
    1.42029764    5.69478797   -0.00000000   2       7  H.gga
    2.17964781   -0.00488624   -0.00000000   2       8  H.gga
    4.36652575    1.25778769    0.00000000   2       9  H.gga
    4.38892133    3.77663712    0.00000000   2      10  H.gga
    0.02476339    3.80116153   -0.00000000   2      11  H.gga
    0.01396708    1.29137057    0.00000000   2      12  H.gga
    2.31904841    5.31664274   -0.00000000   3      13  O.gga

outcell: Unit cell vectors (Ang):
       20.000000    0.000000    0.000000
        0.000000   20.000000    0.000000
        0.000000    0.000000   20.000000

outcell: Cell vector modules (Ang)   :   20.000000   20.000000   20.000000
outcell: Cell angles (23,13,12) (deg):     90.0000     90.0000     90.0000
outcell: Cell volume (Ang**3)        :   8000.0000
<dSpData1D:S at geom step 13
  <sparsity:sparsity for geom step 13
    nrows_g=121 nrows=121 sparsity=.9980 nnzs=14611, refcount: 7>
  <dData1D:(new from dSpData1D) n=14611, refcount: 1>
refcount: 1>
new_DM -- step:    14
Re-using DM from previous geometries...
Number of DMs in history: 1
 DM extrapolation coefficients: 
1   1.00000
New DM after history re-use:
<dSpData2D:SpM extrapolated using coords
  <sparsity:sparsity for geom step 13
    nrows_g=121 nrows=121 sparsity=.9980 nnzs=14611, refcount: 8>
  <dData2D:(temp array for extrapolation) n=14611 m=1, refcount: 1>
refcount: 1>
No. of atoms with KB's overlaping orbs in proc 0. Max # of overlaps:      13     117
New grid distribution:   1
           1       1:  108    1:  108    1:  108

InitMesh: MESH =   216 x   216 x   216 =    10077696
InitMesh: (bp) =   108 x   108 x   108 =     1259712
InitMesh: Mesh cutoff (required, used) =   300.000   322.366 Ry
ExtMesh (bp) on 0 =   188 x   188 x   188 =     6644672
PhiOnMesh: Number of (b)points on node 0 =              1259712
PhiOnMesh: nlist on node 0 =              2631145

        iscf     Eharris(eV)        E_KS(eV)     FreeEng(eV)     dDmax    Ef(eV) dHmax(eV)
[...]
        0.000000   20.000000    0.000000
        0.000000    0.000000   20.000000

outcell: Cell vector modules (Ang)   :   20.000000   20.000000   20.000000
outcell: Cell angles (23,13,12) (deg):     90.0000     90.0000     90.0000
outcell: Cell volume (Ang**3)        :   8000.0000
<dSpData1D:S at geom step 66
  <sparsity:sparsity for geom step 66
    nrows_g=121 nrows=121 sparsity=.9980 nnzs=14611, refcount: 7>
  <dData1D:(new from dSpData1D) n=14611, refcount: 1>
refcount: 1>
new_DM -- step:    67
Re-using DM from previous geometries...
Number of DMs in history: 1
 DM extrapolation coefficients: 
1   1.00000
New DM after history re-use:
<dSpData2D:SpM extrapolated using coords
  <sparsity:sparsity for geom step 66
    nrows_g=121 nrows=121 sparsity=.9980 nnzs=14611, refcount: 8>
  <dData2D:(temp array for extrapolation) n=14611 m=1, refcount: 1>
refcount: 1>
No. of atoms with KB's overlaping orbs in proc 0. Max # of overlaps:      13     117
New grid distribution:   1
           1       1:  108    1:  108    1:  108

InitMesh: MESH =   216 x   216 x   216 =    10077696
InitMesh: (bp) =   108 x   108 x   108 =     1259712
InitMesh: Mesh cutoff (required, used) =   300.000   322.366 Ry
ExtMesh (bp) on 0 =   188 x   188 x   188 =     6644672
PhiOnMesh: Number of (b)points on node 0 =              1259712
PhiOnMesh: nlist on node 0 =              2631423

        iscf     Eharris(eV)        E_KS(eV)     FreeEng(eV)     dDmax    Ef(eV) dHmax(eV)
   scf:    1    -1515.732437    -1515.727828    -1515.727828  0.001233 -3.091316  0.015586
   scf:    2    -1515.727647    -1515.727781    -1515.727781  0.000638 -3.096734  0.033319
   scf:    3    -1515.727859    -1515.727841    -1515.727841  0.000451 -3.092860  0.001055
   scf:    4    -1515.727842    -1515.727842    -1515.727842  0.000011 -3.092845  0.000646

SCF Convergence by DM+H criterion
max |DM_out - DM_in|         :     0.0000109988
max |H_out - H_in|      (eV) :     0.0006460747
SCF cycle converged after 4 iterations

Using DM_out to compute the final energy and forces
No. of atoms with KB's overlaping orbs in proc 0. Max # of overlaps:      13     117

siesta: E_KS(eV) =            -1515.7278

siesta: Atomic forces (eV/Ang):
----------------------------------------
   Tot    0.009460    0.002162    0.000002
----------------------------------------
   Max    0.030888
   Res    0.009915    sqrt( Sum f_i^2 / 3N )
----------------------------------------
   Max    0.030888    constrained

Stress-tensor-Voigt (kbar):       -0.01       -0.00        0.00        0.00        0.00        0.00
(Free)E + p*V (eV/cell)    -1515.7193
Target enthalpy (eV/cell)    -1515.7278

                     ====================================
                        Begin CG opt. move =     67
                     ====================================

outcoor: Atomic coordinates (Ang):                          
    2.18393988    1.11646631   -0.00000003   1       1  C.gga
    3.40575991    1.82448282   -0.00000004   1       2  C.gga
    3.42445211    3.23244793    0.00000004   1       3  C.gga
    2.20213324    3.94459906    0.00000025   1       4  C.gga
    0.97311911    3.24476433    0.00000007   1       5  C.gga
    0.96988224    1.83488684   -0.00000004   1       6  C.gga
    1.35606253    5.67071348    0.00000017   2       7  H.gga
    2.17827192    0.00972939   -0.00000006   2       8  H.gga
    4.36589028    1.27168896   -0.00000011   2       9  H.gga
    4.37472589    3.80025648    0.00000004   2      10  H.gga
    0.01786974    3.80870928    0.00000009   2      11  H.gga
    0.00282493    1.29369764   -0.00000005   2      12  H.gga
    2.26956843    5.32281739    0.00000078   3      13  O.gga

outcell: Unit cell vectors (Ang):
       20.000000    0.000000    0.000000
        0.000000   20.000000    0.000000
        0.000000    0.000000   20.000000

outcell: Cell vector modules (Ang)   :   20.000000   20.000000   20.000000
outcell: Cell angles (23,13,12) (deg):     90.0000     90.0000     90.0000
outcell: Cell volume (Ang**3)        :   8000.0000
<dSpData1D:S at geom step 67
  <sparsity:sparsity for geom step 67
    nrows_g=121 nrows=121 sparsity=.9980 nnzs=14611, refcount: 7>
  <dData1D:(new from dSpData1D) n=14611, refcount: 1>
refcount: 1>
new_DM -- step:    68
Re-using DM from previous geometries...
Number of DMs in history: 1
 DM extrapolation coefficients: 
1   1.00000
New DM after history re-use:
<dSpData2D:SpM extrapolated using coords
  <sparsity:sparsity for geom step 67
    nrows_g=121 nrows=121 sparsity=.9980 nnzs=14611, refcount: 8>
  <dData2D:(temp array for extrapolation) n=14611 m=1, refcount: 1>
refcount: 1>
No. of atoms with KB's overlaping orbs in proc 0. Max # of overlaps:      13     117
New grid distribution:   1
           1       1:  108    1:  108    1:  108

InitMesh: MESH =   216 x   216 x   216 =    10077696
InitMesh: (bp) =   108 x   108 x   108 =     1259712
InitMesh: Mesh cutoff (required, used) =   300.000   322.366 Ry
ExtMesh (bp) on 0 =   188 x   188 x   188 =     6644672
PhiOnMesh: Number of (b)points on node 0 =              1259712
PhiOnMesh: nlist on node 0 =              2631341

        iscf     Eharris(eV)        E_KS(eV)     FreeEng(eV)     dDmax    Ef(eV) dHmax(eV)
   scf:    1    -1515.726437    -1515.727847    -1515.727847  0.000386 -3.093698  0.004929
   scf:    2    -1515.727830    -1515.727843    -1515.727843  0.000197 -3.092012  0.010324
   scf:    3    -1515.727850    -1515.727848    -1515.727848  0.000139 -3.093221  0.000423
   scf:    4    -1515.727848    -1515.727848    -1515.727848  0.000004 -3.093231  0.000257

SCF Convergence by DM+H criterion
max |DM_out - DM_in|         :     0.0000040427
max |H_out - H_in|      (eV) :     0.0002569503
SCF cycle converged after 4 iterations

Using DM_out to compute the final energy and forces
No. of atoms with KB's overlaping orbs in proc 0. Max # of overlaps:      13     117

siesta: E_KS(eV) =            -1515.7278

siesta: Atomic forces (eV/Ang):
----------------------------------------
   Tot    0.009562    0.001936    0.000002
----------------------------------------
   Max    0.020472
   Res    0.006528    sqrt( Sum f_i^2 / 3N )
----------------------------------------
   Max    0.020472    constrained

Stress-tensor-Voigt (kbar):       -0.01       -0.00        0.00        0.00       -0.00       -0.00
(Free)E + p*V (eV/cell)    -1515.7150
Target enthalpy (eV/cell)    -1515.7278

cgvc: Finished line minimization   28.  Mean atomic displacement =    0.0020

                     ====================================
                        Begin CG opt. move =     68
                     ====================================

outcoor: Atomic coordinates (Ang):                          
    2.18398744    1.11673739   -0.00000004   1       1  C.gga
    3.40615264    1.82532593   -0.00000006   1       2  C.gga
    3.42379566    3.23335103    0.00000007   1       3  C.gga
    2.20107316    3.94469933    0.00000028   1       4  C.gga
    0.97180184    3.24438443    0.00000009   1       5  C.gga
    0.96956996    1.83411698   -0.00000004   1       6  C.gga
    1.35664437    5.67176157    0.00000021   2       7  H.gga
    2.17813076    0.00987432   -0.00000006   2       8  H.gga
    4.36578768    1.27176673   -0.00000012   2       9  H.gga
    4.37362575    3.80177886    0.00000006   2      10  H.gga
    0.01627474    3.80869371    0.00000011   2      11  H.gga
    0.00310075    1.29274199   -0.00000007   2      12  H.gga
    2.26959498    5.32287923    0.00000091   3      13  O.gga

outcell: Unit cell vectors (Ang):
       20.000000    0.000000    0.000000
        0.000000   20.000000    0.000000
        0.000000    0.000000   20.000000

outcell: Cell vector modules (Ang)   :   20.000000   20.000000   20.000000
outcell: Cell angles (23,13,12) (deg):     90.0000     90.0000     90.0000
outcell: Cell volume (Ang**3)        :   8000.0000
<dSpData1D:S at geom step 68
  <sparsity:sparsity for geom step 68
    nrows_g=121 nrows=121 sparsity=.9980 nnzs=14611, refcount: 7>
  <dData1D:(new from dSpData1D) n=14611, refcount: 1>
refcount: 1>
new_DM -- step:    69
Re-using DM from previous geometries...
Number of DMs in history: 1
 DM extrapolation coefficients: 
1   1.00000
New DM after history re-use:
<dSpData2D:SpM extrapolated using coords
  <sparsity:sparsity for geom step 68
    nrows_g=121 nrows=121 sparsity=.9980 nnzs=14611, refcount: 8>
  <dData2D:(temp array for extrapolation) n=14611 m=1, refcount: 1>
refcount: 1>
No. of atoms with KB's overlaping orbs in proc 0. Max # of overlaps:      13     117
New grid distribution:   1
           1       1:  108    1:  108    1:  108

InitMesh: MESH =   216 x   216 x   216 =    10077696
InitMesh: (bp) =   108 x   108 x   108 =     1259712
InitMesh: Mesh cutoff (required, used) =   300.000   322.366 Ry
ExtMesh (bp) on 0 =   188 x   188 x   188 =     6644672
PhiOnMesh: Number of (b)points on node 0 =              1259712
PhiOnMesh: nlist on node 0 =              2631371

        iscf     Eharris(eV)        E_KS(eV)     FreeEng(eV)     dDmax    Ef(eV) dHmax(eV)
   scf:    1    -1515.731811    -1515.727865    -1515.727865  0.001078 -3.093042  0.011142
   scf:    2    -1515.727759    -1515.727838    -1515.727838  0.000785 -3.097913  0.024509
   scf:    3    -1515.727884    -1515.727873    -1515.727873  0.000543 -3.094492  0.000795
   scf:    4    -1515.727873    -1515.727873    -1515.727873  0.000012 -3.094483  0.000468

SCF Convergence by DM+H criterion
max |DM_out - DM_in|         :     0.0000122997
max |H_out - H_in|      (eV) :     0.0004678551
SCF cycle converged after 4 iterations

Using DM_out to compute the final energy and forces
No. of atoms with KB's overlaping orbs in proc 0. Max # of overlaps:      13     117

siesta: E_KS(eV) =            -1515.7279

siesta: Atomic forces (eV/Ang):
----------------------------------------
   Tot    0.008632    0.002325    0.000002
----------------------------------------
   Max    0.011982
   Res    0.004689    sqrt( Sum f_i^2 / 3N )
----------------------------------------
   Max    0.011982    constrained

Stress-tensor-Voigt (kbar):       -0.00        0.00        0.00        0.01        0.00       -0.00
(Free)E + p*V (eV/cell)    -1515.7400
Target enthalpy (eV/cell)    -1515.7279

                     ====================================
                        Begin CG opt. move =     69
                     ====================================

outcoor: Atomic coordinates (Ang):                          
    2.18397817    1.11668453   -0.00000003   1       1  C.gga
    3.40607606    1.82516154   -0.00000006   1       2  C.gga
    3.42392365    3.23317494    0.00000007   1       3  C.gga
    2.20127986    3.94467978    0.00000028   1       4  C.gga
    0.97205869    3.24445850    0.00000009   1       5  C.gga
    0.96963085    1.83426709   -0.00000004   1       6  C.gga
    1.35653092    5.67155720    0.00000020   2       7  H.gga
    2.17815828    0.00984606   -0.00000006   2       8  H.gga
    4.36580769    1.27175157   -0.00000011   2       9  H.gga
    4.37384026    3.80148202    0.00000006   2      10  H.gga
    0.01658574    3.80869674    0.00000011   2      11  H.gga
    0.00304697    1.29292833   -0.00000006   2      12  H.gga
    2.26958980    5.32286717    0.00000089   3      13  O.gga

outcell: Unit cell vectors (Ang):
       20.000000    0.000000    0.000000
        0.000000   20.000000    0.000000
        0.000000    0.000000   20.000000

outcell: Cell vector modules (Ang)   :   20.000000   20.000000   20.000000
outcell: Cell angles (23,13,12) (deg):     90.0000     90.0000     90.0000
outcell: Cell volume (Ang**3)        :   8000.0000
<dSpData1D:S at geom step 69
  <sparsity:sparsity for geom step 69
    nrows_g=121 nrows=121 sparsity=.9980 nnzs=14611, refcount: 7>
  <dData1D:(new from dSpData1D) n=14611, refcount: 1>
refcount: 1>
new_DM -- step:    70
Re-using DM from previous geometries...
Number of DMs in history: 1
 DM extrapolation coefficients: 
1   1.00000
New DM after history re-use:
<dSpData2D:SpM extrapolated using coords
  <sparsity:sparsity for geom step 69
    nrows_g=121 nrows=121 sparsity=.9980 nnzs=14611, refcount: 8>
  <dData2D:(temp array for extrapolation) n=14611 m=1, refcount: 1>
refcount: 1>
No. of atoms with KB's overlaping orbs in proc 0. Max # of overlaps:      13     117
New grid distribution:   1
           1       1:  108    1:  108    1:  108

InitMesh: MESH =   216 x   216 x   216 =    10077696
InitMesh: (bp) =   108 x   108 x   108 =     1259712
InitMesh: Mesh cutoff (required, used) =   300.000   322.366 Ry
ExtMesh (bp) on 0 =   188 x   188 x   188 =     6644672
PhiOnMesh: Number of (b)points on node 0 =              1259712
PhiOnMesh: nlist on node 0 =              2631329

        iscf     Eharris(eV)        E_KS(eV)     FreeEng(eV)     dDmax    Ef(eV) dHmax(eV)
   scf:    1    -1515.727103    -1515.727874    -1515.727874  0.000220 -3.094540  0.002107
   scf:    2    -1515.727870    -1515.727873    -1515.727873  0.000142 -3.093688  0.004643
   scf:    3    -1515.727875    -1515.727874    -1515.727874  0.000098 -3.094285  0.000220

SCF Convergence by DM+H criterion
max |DM_out - DM_in|         :     0.0000977754
max |H_out - H_in|      (eV) :     0.0002198149
SCF cycle converged after 3 iterations

Using DM_out to compute the final energy and forces
No. of atoms with KB's overlaping orbs in proc 0. Max # of overlaps:      13     117

siesta: E_KS(eV) =            -1515.7279

siesta: Atomic forces (eV/Ang):
----------------------------------------
   Tot    0.008107    0.002513    0.000002
----------------------------------------
   Max    0.009823
   Res    0.003534    sqrt( Sum f_i^2 / 3N )
----------------------------------------
   Max    0.009823    constrained

Stress-tensor-Voigt (kbar):       -0.00        0.00        0.00        0.01        0.00        0.00
(Free)E + p*V (eV/cell)    -1515.7358
Target enthalpy (eV/cell)    -1515.7279

outcoor: Relaxed atomic coordinates (Ang):                  
    2.18397817    1.11668453   -0.00000003   1       1  C.gga
    3.40607606    1.82516154   -0.00000006   1       2  C.gga
    3.42392365    3.23317494    0.00000007   1       3  C.gga
    2.20127986    3.94467978    0.00000028   1       4  C.gga
    0.97205869    3.24445850    0.00000009   1       5  C.gga
    0.96963085    1.83426709   -0.00000004   1       6  C.gga
    1.35653092    5.67155720    0.00000020   2       7  H.gga
    2.17815828    0.00984606   -0.00000006   2       8  H.gga
    4.36580769    1.27175157   -0.00000011   2       9  H.gga
    4.37384026    3.80148202    0.00000006   2      10  H.gga
    0.01658574    3.80869674    0.00000011   2      11  H.gga
    0.00304697    1.29292833   -0.00000006   2      12  H.gga
    2.26958980    5.32286717    0.00000089   3      13  O.gga

coxmol: Writing XMOL coordinates into file Phenol.xyz                                                          

siesta: Program's energy decomposition (eV):
siesta: Ebs     =      -459.027402
siesta: Eions   =      2250.705553
siesta: Ena     =       437.878274
siesta: Ekin    =      1024.196049
siesta: Enl     =      -188.586496
siesta: Eso     =         0.000000
siesta: Eldau   =         0.000000
siesta: DEna    =       -44.908502
siesta: DUscf   =         5.318109
siesta: DUext   =         0.000000
siesta: Exc     =      -498.919755
siesta: eta*DQ  =         0.000000
siesta: Emadel  =         0.000000
siesta: Emeta   =         0.000000
siesta: Emolmec =         0.000000
siesta: Ekinion =         0.000000
siesta: Eharris =     -1515.727875
siesta: Etot    =     -1515.727874
siesta: FreeEng =     -1515.727874

siesta: Final energy (eV):
siesta:  Band Struct. =    -459.027402
siesta:       Kinetic =    1024.196049
siesta:       Hartree =    3565.597790
siesta:       Eldau   =       0.000000
siesta:       Eso     =       0.000000
siesta:    Ext. field =       0.000000
siesta:   Exch.-corr. =    -498.919755
siesta:  Ion-electron =   -8042.916179
siesta:       Ion-ion =    2436.314221
siesta:       Ekinion =       0.000000
siesta:         Total =   -1515.727874
siesta:         Fermi =      -3.094285

siesta: Stress tensor (static) (eV/Ang**3):
siesta:    -0.000002    0.000005    0.000000
siesta:     0.000005    0.000002    0.000000
siesta:     0.000000    0.000000    0.000003

siesta: Cell volume =       8000.000000 Ang**3

siesta: Pressure (static):
siesta:                Solid            Molecule  Units
siesta:          -0.00000001         -0.00000003  Ry/Bohr**3
siesta:          -0.00000099         -0.00000257  eV/Ang**3
siesta:          -0.00158445         -0.00411228  kBar
(Free)E+ p_basis*V_orbitals  =       -1508.494150
(Free)Eharris+ p_basis*V_orbitals  =       -1508.494150

siesta: Electric dipole (a.u.)  =   -0.454457    0.073267   -0.000000
siesta: Electric dipole (Debye) =   -1.155116    0.186227   -0.000001

timer: Elapsed wall time (sec) =    1690.092
timer: CPU execution times (sec):

Routine            Calls   Time/call    Tot.time        %
siesta                 1    1690.091    1690.091   100.00
Setup                  1       0.441       0.441     0.03
bands                  1       0.000       0.000     0.00
KSV_init               1       0.000       0.000     0.00
IterGeom              70      24.138    1689.631    99.97
state_init            70       0.016       1.094     0.06
hsparse               70       0.001       0.048     0.00
overlap               70       0.013       0.907     0.05
Setup_H0              70       3.151     220.553    13.05
naefs                140       0.000       0.012     0.00
MolMec               140       0.000       0.000     0.00
kinefsm              140       0.011       1.478     0.09
nlefsm               140       0.049       6.864     0.41
DHSCF_Init            70       3.079     215.502    12.75
DHSCF1                70       0.086       6.014     0.36
INITMESH              70       0.000       0.001     0.00
DHSCF2                70       2.993     209.488    12.40
REMESH                70       0.103       7.232     0.43
REORD               2036       0.017      34.757     2.06
PHION                 70       1.760     123.184     7.29
COMM_BSC            1196       0.018      20.994     1.24
POISON               563       0.792     445.679    26.37
fft                 1126       0.312     351.168    20.78
IterSCF              353       3.042    1073.806    63.54
setup_H              423       2.531    1070.682    63.35
DHSCF                493       2.951    1454.865    86.08
DHSCF3               493       2.518    1241.141    73.44
rhoofd               493       0.361     178.180    10.54
CellXC               493       0.916     451.701    26.73
cellXC               493       0.916     451.696    26.73
vmat                 493       0.230     113.478     6.71
compute_dm           353       0.006       2.230     0.13
diagon               353       0.006       1.974     0.12
r-eigvec             353       0.005       1.731     0.10
r-buildHS            353       0.000       0.026     0.00
rdiag                353       0.005       1.704     0.10
rdiag1               353       0.000       0.101     0.01
rdiag2               353       0.001       0.240     0.01
rdiag3               353       0.003       1.158     0.07
rdiag4               353       0.001       0.199     0.01
r-buildD             353       0.000       0.175     0.01
MIXER                283       0.000       0.117     0.01
PostSCF               70       5.625     393.734    23.30
DHSCF4                70       3.053     213.723    12.65
dfscf                 70       2.558     179.093    10.60
overfsm               70       0.005       0.342     0.02
state_analysis        70       0.002       0.169     0.01
siesta_move           70       0.002       0.108     0.01
Analysis               1       0.003       0.003     0.00
optical                1       0.000       0.000     0.00
  
>> End of run:  22-MAR-2019  10:16:28
Job completed
