
                           ***********************       
                           *  WELCOME TO SIESTA  *       
                           ***********************       

reinit: Reading from input.fdf

reinit: -----------------------------------------------------------------------
reinit: System Name: 
reinit: -----------------------------------------------------------------------
reinit: System Label: H2O
reinit: -----------------------------------------------------------------------
Siesta Version: siesta-4.1--736
Architecture  : linux
Compiler flags: gfortran -O3 -fPIC -ftree-vectorize -fopenmp
PP flags      : -DFC_HAVE_ABORT
Libraries     : -L/usr/lib -lopenblas -fopenmp
SERIAL version

* Running in serial mode
* Running 4 OpenMP threads.
* Running 4 processes.
* OpenMP version 201511
* OpenMP runtime schedule DYNAMIC, chunks 1
** OpenMP runtime schedule DYNAMIC, chunks 32
>> Start of run:  25-NOV-2018  15:24:41

initatom: Reading input for the pseudopotentials and atomic orbitals ----------
Species number:   1 Atomic number:    8 Label: O.gga
Species number:   2 Atomic number:    1 Label: H.gga

Ground state valence configuration:   2s02  2p04
Reading pseudopotential information in formatted form from O.gga.psf

Valence configuration for pseudopotential generation:
2s( 2.00) rc: 1.47
2p( 4.00) rc: 1.47
3d( 0.00) rc: 1.47
4f( 0.00) rc: 1.47
Ground state valence configuration:   1s01
Reading pseudopotential information in formatted form from H.gga.psf

Valence configuration for pseudopotential generation:
1s( 1.00) rc: 1.31
2p( 0.00) rc: 1.31
3d( 0.00) rc: 0.37
4f( 0.00) rc: 1.31
For O.gga, standard SIESTA heuristics set lmxkb to 3
 (one more than the basis l, including polarization orbitals).
Use PS.lmax or PS.KBprojectors blocks to override.
For H.gga, standard SIESTA heuristics set lmxkb to 2
 (one more than the basis l, including polarization orbitals).
Use PS.lmax or PS.KBprojectors blocks to override.

<basis_specs>
===============================================================================
O.gga                Z=   8    Mass=  16.000        Charge= 0.17977+309
Lmxo=1 Lmxkb= 3    BasisType=split      Semic=F
L=0  Nsemic=0  Cnfigmx=2
          n=1  nzeta=2  polorb=0
            splnorm:   0.15000    
               vcte:    0.0000    
               rinn:    0.0000    
               qcoe:    0.0000    
               qyuk:    0.0000    
               qwid:   0.10000E-01
                rcs:    0.0000      0.0000    
            lambdas:    1.0000      1.0000    
L=1  Nsemic=0  Cnfigmx=2
          n=1  nzeta=2  polorb=1
            splnorm:   0.15000    
               vcte:    0.0000    
               rinn:    0.0000    
               qcoe:    0.0000    
               qyuk:    0.0000    
               qwid:   0.10000E-01
                rcs:    0.0000      0.0000    
            lambdas:    1.0000      1.0000    
-------------------------------------------------------------------------------
L=0  Nkbl=1  erefs: 0.17977+309
L=1  Nkbl=1  erefs: 0.17977+309
L=2  Nkbl=1  erefs: 0.17977+309
L=3  Nkbl=1  erefs: 0.17977+309
===============================================================================
</basis_specs>

atom: Called for O.gga                 (Z =   8)

read_vps: Pseudopotential generation method:
read_vps: ATM3      Troullier-Martins                       
Total valence charge:    6.00000

read_vps: Pseudopotential includes a core correction:
read_vps: Pseudo-core for xc-correction

xc_check: Exchange-correlation functional:
xc_check: GGA Perdew, Burke & Ernzerhof 1996
V l=0 = -2*Zval/r beyond r=  1.4482
V l=1 = -2*Zval/r beyond r=  1.4482
V l=2 = -2*Zval/r beyond r=  1.4482
V l=3 = -2*Zval/r beyond r=  1.4482
All V_l potentials equal beyond r=  1.4482
This should be close to max(r_c) in ps generation
All pots = -2*Zval/r beyond r=  1.4482

VLOCAL1: 99.0% of the norm of Vloc inside     20.696 Ry
VLOCAL1: 99.9% of the norm of Vloc inside     47.167 Ry
atom: Maximum radius for 4*pi*r*r*local-pseudopot. charge    1.74697
atom: Maximum radius for r*vlocal+2*Zval:    1.52250
GHOST: No ghost state for L =  0
GHOST: No ghost state for L =  1
GHOST: No ghost state for L =  2
GHOST: No ghost state for L =  3

KBgen: Kleinman-Bylander projectors: 
   l= 0   rc=  1.620715   el= -1.757696   Ekb=  4.880948   kbcos=  0.293490
   l= 1   rc=  1.600578   el= -0.664256   Ekb= -6.909822   kbcos= -0.499892
   l= 2   rc=  1.703827   el=  0.002031   Ekb= -1.539219   kbcos= -0.006778
   l= 3   rc=  1.746967   el=  0.003153   Ekb= -0.568983   kbcos= -0.000967

KBgen: Total number of  Kleinman-Bylander projectors:   16
atom: -------------------------------------------------------------------------

atom: SANKEY-TYPE ORBITALS:
atom: Selected multiple-zeta basis: split     

SPLIT: Orbitals with angular momentum L= 0

SPLIT: Basis orbitals for state 2s

SPLIT: PAO cut-off radius determined from an
SPLIT: energy shift=  0.002205 Ry

   izeta = 1
                 lambda =    1.000000
                     rc =    4.139122
                 energy =   -1.755549
                kinetic =    1.529685
    potential(screened) =   -3.285233
       potential(ionic) =  -11.160563

   izeta = 2
                 rmatch =    2.541963
              splitnorm =    0.150000
                 energy =   -1.517776
                kinetic =    2.348222
    potential(screened) =   -3.865999
       potential(ionic) =  -12.356890

SPLIT: Orbitals with angular momentum L= 1

SPLIT: Basis orbitals for state 2p

SPLIT: PAO cut-off radius determined from an
SPLIT: energy shift=  0.002205 Ry

   izeta = 1
                 lambda =    1.000000
                     rc =    5.314825
                 energy =   -0.662390
                kinetic =    4.472446
    potential(screened) =   -5.134836
       potential(ionic) =  -12.694617

   izeta = 2
                 rmatch =    2.705925
              splitnorm =    0.150000
                 energy =   -0.427537
                kinetic =    6.597007
    potential(screened) =   -7.024544
       potential(ionic) =  -15.479186

POLgen: Perturbative polarization orbital with L=  2

POLgen: Polarization orbital for state 2p

   izeta = 1
                     rc =    5.314825
                 energy =    1.979175
                kinetic =    4.015874
    potential(screened) =   -2.036699
       potential(ionic) =   -7.919671
atom: Total number of Sankey-type orbitals: 13

atm_pop: Valence configuration (for local Pseudopot. screening):
 2s( 2.00)                                                            
 2p( 4.00)                                                            
Vna: chval, zval:    6.00000   6.00000

Vna:  Cut-off radius for the neutral-atom potential:   5.314825
comcore: Pseudo-core radius Rcore=  1.377587

atom: _________________________________________________________________________

<basis_specs>
===============================================================================
H.gga                Z=   1    Mass=  1.0100        Charge= 0.17977+309
Lmxo=0 Lmxkb= 2    BasisType=split      Semic=F
L=0  Nsemic=0  Cnfigmx=1
          n=1  nzeta=2  polorb=1
            splnorm:   0.15000    
               vcte:    0.0000    
               rinn:    0.0000    
               qcoe:    0.0000    
               qyuk:    0.0000    
               qwid:   0.10000E-01
                rcs:    0.0000      0.0000    
            lambdas:    1.0000      1.0000    
-------------------------------------------------------------------------------
L=0  Nkbl=1  erefs: 0.17977+309
L=1  Nkbl=1  erefs: 0.17977+309
L=2  Nkbl=1  erefs: 0.17977+309
===============================================================================
</basis_specs>

atom: Called for H.gga                 (Z =   1)

read_vps: Pseudopotential generation method:
read_vps: ATM3      Troullier-Martins                       
Total valence charge:    1.00000

xc_check: Exchange-correlation functional:
xc_check: GGA Perdew, Burke & Ernzerhof 1996
V l=0 = -2*Zval/r beyond r=  1.2977
V l=1 = -2*Zval/r beyond r=  1.2815
V l=2 = -2*Zval/r beyond r=  1.2656
All V_l potentials equal beyond r=  1.2977
This should be close to max(r_c) in ps generation
All pots = -2*Zval/r beyond r=  1.2977

VLOCAL1: 99.0% of the norm of Vloc inside     25.776 Ry
VLOCAL1: 99.9% of the norm of Vloc inside     58.745 Ry
atom: Maximum radius for 4*pi*r*r*local-pseudopot. charge    1.52711
atom: Maximum radius for r*vlocal+2*Zval:    1.28155
GHOST: No ghost state for L =  0
GHOST: No ghost state for L =  1
GHOST: No ghost state for L =  2

KBgen: Kleinman-Bylander projectors: 
   l= 0   rc=  1.434438   el= -0.477200   Ekb= -1.957043   kbcos= -0.361614
   l= 1   rc=  1.508111   el=  0.001076   Ekb= -0.424224   kbcos= -0.025441
   l= 2   rc=  1.527112   el=  0.002010   Ekb= -0.378578   kbcos= -0.002010

KBgen: Total number of  Kleinman-Bylander projectors:    9
atom: -------------------------------------------------------------------------

atom: SANKEY-TYPE ORBITALS:
atom: Selected multiple-zeta basis: split     

SPLIT: Orbitals with angular momentum L= 0

SPLIT: Basis orbitals for state 1s

SPLIT: PAO cut-off radius determined from an
SPLIT: energy shift=  0.002205 Ry

   izeta = 1
                 lambda =    1.000000
                     rc =    6.518340
                 energy =   -0.475328
                kinetic =    0.879188
    potential(screened) =   -1.354517
       potential(ionic) =   -1.873657

   izeta = 2
                 rmatch =    4.103729
              splitnorm =    0.150000
                 energy =   -0.382914
                kinetic =    1.427335
    potential(screened) =   -1.810249
       potential(ionic) =   -2.357086

POLgen: Perturbative polarization orbital with L=  1

POLgen: Polarization orbital for state 1s

   izeta = 1
                     rc =    6.518340
                 energy =    0.536347
                kinetic =    1.136516
    potential(screened) =   -0.600169
       potential(ionic) =   -1.065665
atom: Total number of Sankey-type orbitals:  5

atm_pop: Valence configuration (for local Pseudopot. screening):
 1s( 1.00)                                                            
Vna: chval, zval:    1.00000   1.00000

Vna:  Cut-off radius for the neutral-atom potential:   6.518340

atom: _________________________________________________________________________

prinput: Basis input ----------------------------------------------------------

PAO.BasisType split     

%block ChemicalSpeciesLabel
    1    8 O.gga                   # Species index, atomic number, species label
    2    1 H.gga                   # Species index, atomic number, species label
%endblock ChemicalSpeciesLabel

%block PAO.Basis                 # Define Basis set
O.gga                 2                    # Species label, number of l-shells
 n=2   0   2                         # n, l, Nzeta 
   4.139      2.542   
   1.000      1.000   
 n=2   1   2 P   1                   # n, l, Nzeta, Polarization, NzetaPol
   5.315      2.706   
   1.000      1.000   
H.gga                 1                    # Species label, number of l-shells
 n=1   0   2 P   1                   # n, l, Nzeta, Polarization, NzetaPol
   6.518      4.104   
   1.000      1.000   
%endblock PAO.Basis

prinput: ----------------------------------------------------------------------

coor:   Atomic-coordinates input format  =     Cartesian coordinates
coor:                                          (in Angstroms)

siesta: Atomic coordinates (Bohr) and species
siesta:     18.89727  18.89727  18.89727  1        1
siesta:     20.78700  18.89727  18.89727  2        2
siesta:     18.89727  20.78700  18.89727  2        3

siesta: System type = molecule  

initatomlists: Number of atoms, orbitals, and projectors:      3    23    34

coxmol: Writing XMOL coordinates into file H2O.xyz                                                             

siesta: ******************** Simulation parameters ****************************
siesta:
siesta: The following are some of the parameters of the simulation.
siesta: A complete list of the parameters used, including default values,
siesta: can be found in file out.fdf
siesta:
redata: Spin configuration                          = none
redata: Number of spin components                   = 1
redata: Time-Reversal Symmetry                      = T
redata: Spin-spiral                                 = F
redata: Long output                                 =   F
redata: Number of Atomic Species                    =        2
redata: Charge density info will appear in .RHO file
redata: Write Mulliken Pop.                         = NO
redata: Mesh Cutoff                                 =   300.0000 Ry
redata: Net charge of the system                    =     0.0000 |e|
redata: Min. number of SCF Iter                     =        0
redata: Max. number of SCF Iter                     =     1000
redata: SCF mix quantity                            = Hamiltonian
redata: Mix DM or H after convergence               =   F
redata: Recompute H after scf cycle                 =   F
redata: Mix DM in first SCF step                    =   T
redata: Write Pulay info on disk                    =   F
redata: New DM Mixing Weight                        =     0.2500
redata: New DM Occupancy tolerance                  = 0.000000000001
redata: No kicks to SCF
redata: DM Mixing Weight for Kicks                  =     0.5000
redata: Require Harris convergence for SCF          =   F
redata: Harris energy tolerance for SCF             =     0.000100 eV
redata: Require DM convergence for SCF              =   T
redata: DM tolerance for SCF                        =     0.0001
redata: Require EDM convergence for SCF             =   F
redata: EDM tolerance for SCF                       =     0.001000 eV
redata: Require H convergence for SCF               =   T
redata: Hamiltonian tolerance for SCF               =     0.001000 eV
redata: Require (free) Energy convergence for SCF   =   F
redata: (free) Energy tolerance for SCF             =     0.000100 eV
redata: Using Saved Data (generic)                  =   F
redata: Use continuation files for DM               =   F
redata: Neglect nonoverlap interactions             =   F
redata: Method of Calculation                       = Diagonalization
redata: Divide and Conquer                          =   T
redata: Electronic Temperature                      =   299.9869 K
redata: Fix the spin of the system                  =   F
redata: Dynamics option                             = Broyden coord. optimization
redata: Variable cell                               =   F
redata: Maximum number of CG moves                  =     1000
redata: Force tolerance                             =     0.0100 eV/Ang
mix.SCF: Pulay mixing                            = Pulay
mix.SCF:    Variant                              = stable
mix.SCF:    History steps                        = 2
mix.SCF:    Linear mixing weight                 =     0.250000
mix.SCF:    Mixing weight                        =     0.250000
mix.SCF:    SVD condition                        = 0.1000E-07
redata: ***********************************************************************

%block SCF.Mixers
  Pulay
%endblock SCF.Mixers

%block SCF.Mixer.Pulay
  # Mixing method
  method pulay
  variant stable

  # Mixing options
  weight 0.2500
  weight.linear 0.2500
  history 2
%endblock SCF.Mixer.Pulay

DM_history_depth set to one: no extrapolation allowed by default for geometry relaxation
Size of DM history Fstack: 1
Total number of electrons:     8.000000
Total ionic charge:     8.000000
 Kpoints in:            1 . Kpoints trimmed:            1

siesta: k-grid: Number of k-points =     1
siesta: k-grid: Cutoff (effective) =    10.000 Ang
siesta: k-grid: Supercell and displacements
siesta: k-grid:    1   0   0      0.000
siesta: k-grid:    0   1   0      0.000
siesta: k-grid:    0   0   1      0.000


                     ====================================
                        Begin Broyden opt. move =      0
                     ====================================

outcoor: Atomic coordinates (Ang):                          
   10.00000000   10.00000000   10.00000000   1       1  O.gga
   11.00000000   10.00000000   10.00000000   2       2  H.gga
   10.00000000   11.00000000   10.00000000   2       3  H.gga

outcell: Unit cell vectors (Ang):
       20.000000    0.000000    0.000000
        0.000000   20.000000    0.000000
        0.000000    0.000000   20.000000

outcell: Cell vector modules (Ang)   :   20.000000   20.000000   20.000000
outcell: Cell angles (23,13,12) (deg):     90.0000     90.0000     90.0000
outcell: Cell volume (Ang**3)        :   8000.0000
<dSpData1D:S at geom step 0
  <sparsity:sparsity for geom step 0
    nrows_g=23 nrows=23 sparsity=1.0000 nnzs=529, refcount: 7>
  <dData1D:(new from dSpData1D) n=529, refcount: 1>
refcount: 1>
new_DM -- step:     1
Initializing Density Matrix...
DM filled with atomic data:
<dSpData2D:DM initialized from atoms
  <sparsity:sparsity for geom step 0
    nrows_g=23 nrows=23 sparsity=1.0000 nnzs=529, refcount: 8>
  <dData2D:DM n=529 m=1, refcount: 1>
refcount: 1>

No. of atoms with KB's overlaping orbs in proc 0. Max # of overlaps:       3      23
New grid distribution:   1
           1       1:  108    1:  108    1:  108

InitMesh: MESH =   216 x   216 x   216 =    10077696
InitMesh: (bp) =   108 x   108 x   108 =     1259712
InitMesh: Mesh cutoff (required, used) =   300.000   322.366 Ry
ExtMesh (bp) on 0 =   184 x   184 x   184 =     6229504
PhiOnMesh: Number of (b)points on node 0 =              1259712
PhiOnMesh: nlist on node 0 =               387165

stepf: Fermi-Dirac step function

siesta: Program's energy decomposition (eV):
siesta: Ebs     =       -71.001280
siesta: Eions   =       642.143903
siesta: Ena     =        74.030224
siesta: Ekin    =       362.598508
siesta: Enl     =      -117.105062
siesta: Eso     =         0.000000
siesta: Eldau   =         0.000000
siesta: DEna    =       -23.321189
siesta: DUscf   =         4.487167
siesta: DUext   =         0.000000
siesta: Exc     =      -135.363940
siesta: eta*DQ  =         0.000000
siesta: Emadel  =         0.000000
siesta: Emeta   =         0.000000
siesta: Emolmec =         0.000000
siesta: Ekinion =         0.000000
siesta: Eharris =      -474.946705
siesta: Etot    =      -476.818196
siesta: FreeEng =      -476.818196

        iscf     Eharris(eV)        E_KS(eV)     FreeEng(eV)     dDmax    Ef(eV) dHmax(eV)
   scf:    1     -474.946705     -476.818196     -476.818196  0.848131 -3.224734 11.146044
timer: Routine,Calls,Time,% = IterSCF        1       5.238  60.15
   scf:    2     -479.995840     -478.723825     -478.723825  0.174199 -7.686053  4.050092
   scf:    3     -478.967455     -478.941654     -478.941654  0.065464 -6.534666  0.407188
   scf:    4     -478.951219     -478.947128     -478.947128  0.013146 -6.478174  0.310223
   scf:    5     -478.949187     -478.948288     -478.948288  0.007751 -6.419578  0.245202
   scf:    6     -478.949073     -478.948780     -478.948780  0.015503 -6.236283  0.083721
   scf:    7     -478.948928     -478.948870     -478.948870  0.002162 -6.186324  0.028231
   scf:    8     -478.948903     -478.948888     -478.948888  0.001135 -6.197072  0.014647
   scf:    9     -478.948894     -478.948892     -478.948892  0.001161 -6.210377  0.001302
   scf:   10     -478.948892     -478.948892     -478.948892  0.000143 -6.209629  0.000621
   scf:   11     -478.948892     -478.948892     -478.948892  0.000075 -6.209337  0.000290

SCF Convergence by DM+H criterion
max |DM_out - DM_in|         :     0.0000754969
max |H_out - H_in|      (eV) :     0.0002895055
SCF cycle converged after 11 iterations

Using DM_out to compute the final energy and forces
No. of atoms with KB's overlaping orbs in proc 0. Max # of overlaps:       3      23

siesta: E_KS(eV) =             -478.9489

siesta: E_KS - E_eggbox =      -478.9489

siesta: Atomic forces (eV/Ang):
----------------------------------------
   Tot    0.012546    0.012546   -0.000000
----------------------------------------
   Max    1.678525
   Res    0.984691    sqrt( Sum f_i^2 / 3N )
----------------------------------------
   Max    1.678525    constrained

Stress-tensor-Voigt (kbar):        0.12        0.12        0.00        0.22        0.00        0.00
(Free)E + p*V (eV/cell)     -479.3405
Target enthalpy (eV/cell)     -478.9489

Broyden_optim: max_history for broyden:   5
Broyden_optim: cycle on maxit: T
Broyden_optim: initial inverse jacobian:   1.0000

Broyden_optim: No of elements:      9

                     ====================================
                        Begin Broyden opt. move =      1
                     ====================================

outcoor: Atomic coordinates (Ang):                          
   10.03454662   10.03454662   10.00000000   1       1  O.gga
   10.98864221    9.97706939   10.00000000   2       2  H.gga
    9.97706939   10.98864221   10.00000000   2       3  H.gga

outcell: Unit cell vectors (Ang):
       20.000000    0.000000    0.000000
        0.000000   20.000000    0.000000
        0.000000    0.000000   20.000000

outcell: Cell vector modules (Ang)   :   20.000000   20.000000   20.000000
outcell: Cell angles (23,13,12) (deg):     90.0000     90.0000     90.0000
outcell: Cell volume (Ang**3)        :   8000.0000
<dSpData1D:S at geom step 1
  <sparsity:sparsity for geom step 1
    nrows_g=23 nrows=23 sparsity=1.0000 nnzs=529, refcount: 7>
  <dData1D:(new from dSpData1D) n=529, refcount: 1>
refcount: 1>
new_DM -- step:     2
Re-using DM from previous geometries...
Number of DMs in history: 1
 DM extrapolation coefficients: 
1   1.00000
New DM after history re-use:
<dSpData2D:SpM extrapolated using coords
  <sparsity:sparsity for geom step 1
    nrows_g=23 nrows=23 sparsity=1.0000 nnzs=529, refcount: 8>
  <dData2D:(temp array for extrapolation) n=529 m=1, refcount: 1>
refcount: 1>
Note: For starting DM, Qtot, Tr[D*S] =          8.00000000          8.05348348
No. of atoms with KB's overlaping orbs in proc 0. Max # of overlaps:       3      23
New grid distribution:   1
           1       1:  108    1:  108    1:  108

InitMesh: MESH =   216 x   216 x   216 =    10077696
InitMesh: (bp) =   108 x   108 x   108 =     1259712
InitMesh: Mesh cutoff (required, used) =   300.000   322.366 Ry
ExtMesh (bp) on 0 =   184 x   184 x   184 =     6229504
PhiOnMesh: Number of (b)points on node 0 =              1259712
PhiOnMesh: nlist on node 0 =               387184

        iscf     Eharris(eV)        E_KS(eV)     FreeEng(eV)     dDmax    Ef(eV) dHmax(eV)
   scf:    1     -478.488791     -479.010017     -479.010017  0.094150 -6.166821  1.030639
   scf:    2     -478.788310     -478.957417     -478.957417  0.053180 -5.498868  1.862997
   scf:    3     -479.059133     -479.032887     -479.032887  0.033293 -5.928734  0.030113
   scf:    4     -479.033002     -479.032946     -479.032946  0.000460 -5.925833  0.021559
   scf:    5     -479.033041     -479.032996     -479.032996  0.000692 -5.922668  0.006308
   scf:    6     -479.033003     -479.033000     -479.033000  0.000219 -5.921645  0.002445
   scf:    7     -479.033000     -479.033000     -479.033000  0.000081 -5.920870  0.001386
   scf:    8     -479.033000     -479.033000     -479.033000  0.000046 -5.920098  0.000810

SCF Convergence by DM+H criterion
max |DM_out - DM_in|         :     0.0000462149
max |H_out - H_in|      (eV) :     0.0008098768
SCF cycle converged after 8 iterations

Using DM_out to compute the final energy and forces
No. of atoms with KB's overlaping orbs in proc 0. Max # of overlaps:       3      23

siesta: E_KS(eV) =             -479.0330

siesta: Atomic forces (eV/Ang):
----------------------------------------
   Tot    0.016958    0.016958   -0.000000
----------------------------------------
   Max    1.172550
   Res    0.685671    sqrt( Sum f_i^2 / 3N )
----------------------------------------
   Max    1.172550    constrained

Stress-tensor-Voigt (kbar):       -0.23       -0.23        0.00        0.16       -0.00        0.00
(Free)E + p*V (eV/cell)     -478.2674
Target enthalpy (eV/cell)     -479.0330

                     ====================================
                        Begin Broyden opt. move =      2
                     ====================================

outcoor: Atomic coordinates (Ang):                          
   10.02935212   10.02935212   10.00000000   1       1  O.gga
   11.00439559    9.96673834   10.00000000   2       2  H.gga
    9.96673834   11.00439559   10.00000000   2       3  H.gga

outcell: Unit cell vectors (Ang):
       20.000000    0.000000    0.000000
        0.000000   20.000000    0.000000
        0.000000    0.000000   20.000000

outcell: Cell vector modules (Ang)   :   20.000000   20.000000   20.000000
outcell: Cell angles (23,13,12) (deg):     90.0000     90.0000     90.0000
outcell: Cell volume (Ang**3)        :   8000.0000
<dSpData1D:S at geom step 2
  <sparsity:sparsity for geom step 2
    nrows_g=23 nrows=23 sparsity=1.0000 nnzs=529, refcount: 7>
  <dData1D:(new from dSpData1D) n=529, refcount: 1>
refcount: 1>
new_DM -- step:     3
Re-using DM from previous geometries...
Number of DMs in history: 1
 DM extrapolation coefficients: 
1   1.00000
New DM after history re-use:
<dSpData2D:SpM extrapolated using coords
  <sparsity:sparsity for geom step 2
    nrows_g=23 nrows=23 sparsity=1.0000 nnzs=529, refcount: 8>
  <dData2D:(temp array for extrapolation) n=529 m=1, refcount: 1>
refcount: 1>
Note: For starting DM, Qtot, Tr[D*S] =          8.00000000          7.98364728
No. of atoms with KB's overlaping orbs in proc 0. Max # of overlaps:       3      23
New grid distribution:   1
           1       1:  108    1:  108    1:  108

InitMesh: MESH =   216 x   216 x   216 =    10077696
InitMesh: (bp) =   108 x   108 x   108 =     1259712
InitMesh: Mesh cutoff (required, used) =   300.000   322.366 Ry
ExtMesh (bp) on 0 =   184 x   184 x   184 =     6229504
PhiOnMesh: Number of (b)points on node 0 =              1259712
PhiOnMesh: nlist on node 0 =               387426

        iscf     Eharris(eV)        E_KS(eV)     FreeEng(eV)     dDmax    Ef(eV) dHmax(eV)
   scf:    1     -479.332622     -479.064336     -479.064336  0.037883 -5.846156  0.264240
   scf:    2     -479.048357     -479.060624     -479.060624  0.014061 -6.002039  0.490522
   scf:    3     -479.068039     -479.066116     -479.066116  0.009212 -5.898742  0.014146
   scf:    4     -479.066141     -479.066129     -479.066129  0.000184 -5.897790  0.008604
   scf:    5     -479.066144     -479.066138     -479.066138  0.000313 -5.897124  0.003037
   scf:    6     -479.066138     -479.066138     -479.066138  0.000055 -5.897644  0.002179
   scf:    7     -479.066138     -479.066138     -479.066138  0.000126 -5.898877  0.000389
   scf:    8     -479.066138     -479.066138     -479.066138  0.000004 -5.898948  0.000247

SCF Convergence by DM+H criterion
max |DM_out - DM_in|         :     0.0000040117
max |H_out - H_in|      (eV) :     0.0002474271
SCF cycle converged after 8 iterations

Using DM_out to compute the final energy and forces
No. of atoms with KB's overlaping orbs in proc 0. Max # of overlaps:       3      23

siesta: E_KS(eV) =             -479.0661

siesta: Atomic forces (eV/Ang):
----------------------------------------
   Tot    0.029190    0.029190    0.000000
----------------------------------------
   Max    0.565566
   Res    0.352311    sqrt( Sum f_i^2 / 3N )
----------------------------------------
   Max    0.565566    constrained

Stress-tensor-Voigt (kbar):       -0.03       -0.03        0.00        0.11       -0.00        0.00
(Free)E + p*V (eV/cell)     -478.9771
Target enthalpy (eV/cell)     -479.0661

                     ====================================
                        Begin Broyden opt. move =      3
                     ====================================

outcoor: Atomic coordinates (Ang):                          
   10.05069348   10.05069348   10.00000000   1       1  O.gga
   11.01830503    9.93307441   10.00000000   2       2  H.gga
    9.93307441   11.01830503   10.00000000   2       3  H.gga

outcell: Unit cell vectors (Ang):
       20.000000    0.000000    0.000000
        0.000000   20.000000    0.000000
        0.000000    0.000000   20.000000

outcell: Cell vector modules (Ang)   :   20.000000   20.000000   20.000000
outcell: Cell angles (23,13,12) (deg):     90.0000     90.0000     90.0000
outcell: Cell volume (Ang**3)        :   8000.0000
<dSpData1D:S at geom step 3
  <sparsity:sparsity for geom step 3
    nrows_g=23 nrows=23 sparsity=1.0000 nnzs=529, refcount: 7>
  <dData1D:(new from dSpData1D) n=529, refcount: 1>
refcount: 1>
new_DM -- step:     4
Re-using DM from previous geometries...
Number of DMs in history: 1
 DM extrapolation coefficients: 
1   1.00000
New DM after history re-use:
<dSpData2D:SpM extrapolated using coords
  <sparsity:sparsity for geom step 3
    nrows_g=23 nrows=23 sparsity=1.0000 nnzs=529, refcount: 8>
  <dData2D:(temp array for extrapolation) n=529 m=1, refcount: 1>
refcount: 1>
Note: For starting DM, Qtot, Tr[D*S] =          8.00000000          8.01548936
No. of atoms with KB's overlaping orbs in proc 0. Max # of overlaps:       3      23
New grid distribution:   1
           1       1:  108    1:  108    1:  108

InitMesh: MESH =   216 x   216 x   216 =    10077696
InitMesh: (bp) =   108 x   108 x   108 =     1259712
InitMesh: Mesh cutoff (required, used) =   300.000   322.366 Ry
ExtMesh (bp) on 0 =   184 x   184 x   184 =     6229504
PhiOnMesh: Number of (b)points on node 0 =              1259712
PhiOnMesh: nlist on node 0 =               387207

        iscf     Eharris(eV)        E_KS(eV)     FreeEng(eV)     dDmax    Ef(eV) dHmax(eV)
   scf:    1     -479.039646     -479.095008     -479.095008  0.082964 -5.757534  0.344118
   scf:    2     -479.071991     -479.089750     -479.089750  0.019661 -5.508636  0.624995
   scf:    3     -479.100526     -479.097748     -479.097748  0.012548 -5.666840  0.029470
   scf:    4     -479.097823     -479.097786     -479.097786  0.000467 -5.665713  0.021142
   scf:    5     -479.097856     -479.097823     -479.097823  0.001048 -5.663932  0.002050
   scf:    6     -479.097824     -479.097824     -479.097824  0.000043 -5.664322  0.001372
   scf:    7     -479.097824     -479.097824     -479.097824  0.000066 -5.664956  0.000199

SCF Convergence by DM+H criterion
max |DM_out - DM_in|         :     0.0000660287
max |H_out - H_in|      (eV) :     0.0001986654
SCF cycle converged after 7 iterations

Using DM_out to compute the final energy and forces
No. of atoms with KB's overlaping orbs in proc 0. Max # of overlaps:       3      23

siesta: E_KS(eV) =             -479.0978

siesta: Atomic forces (eV/Ang):
----------------------------------------
   Tot   -0.019275   -0.019275   -0.000000
----------------------------------------
   Max    0.059440
   Res    0.038398    sqrt( Sum f_i^2 / 3N )
----------------------------------------
   Max    0.059440    constrained

Stress-tensor-Voigt (kbar):       -0.01       -0.01        0.00        0.01        0.00       -0.00
(Free)E + p*V (eV/cell)     -479.0658
Target enthalpy (eV/cell)     -479.0978

                     ====================================
                        Begin Broyden opt. move =      4
                     ====================================

outcoor: Atomic coordinates (Ang):                          
   10.05158296   10.05158296   10.00000000   1       1  O.gga
   11.02041534    9.92985703   10.00000000   2       2  H.gga
    9.92985703   11.02041534   10.00000000   2       3  H.gga

outcell: Unit cell vectors (Ang):
       20.000000    0.000000    0.000000
        0.000000   20.000000    0.000000
        0.000000    0.000000   20.000000

outcell: Cell vector modules (Ang)   :   20.000000   20.000000   20.000000
outcell: Cell angles (23,13,12) (deg):     90.0000     90.0000     90.0000
outcell: Cell volume (Ang**3)        :   8000.0000
<dSpData1D:S at geom step 4
  <sparsity:sparsity for geom step 4
    nrows_g=23 nrows=23 sparsity=1.0000 nnzs=529, refcount: 7>
  <dData1D:(new from dSpData1D) n=529, refcount: 1>
refcount: 1>
new_DM -- step:     5
Re-using DM from previous geometries...
Number of DMs in history: 1
 DM extrapolation coefficients: 
1   1.00000
New DM after history re-use:
<dSpData2D:SpM extrapolated using coords
  <sparsity:sparsity for geom step 4
    nrows_g=23 nrows=23 sparsity=1.0000 nnzs=529, refcount: 8>
  <dData2D:(temp array for extrapolation) n=529 m=1, refcount: 1>
refcount: 1>
No. of atoms with KB's overlaping orbs in proc 0. Max # of overlaps:       3      23
New grid distribution:   1
           1       1:  108    1:  108    1:  108

InitMesh: MESH =   216 x   216 x   216 =    10077696
InitMesh: (bp) =   108 x   108 x   108 =     1259712
InitMesh: Mesh cutoff (required, used) =   300.000   322.366 Ry
ExtMesh (bp) on 0 =   184 x   184 x   184 =     6229504
PhiOnMesh: Number of (b)points on node 0 =              1259712
PhiOnMesh: nlist on node 0 =               387198

        iscf     Eharris(eV)        E_KS(eV)     FreeEng(eV)     dDmax    Ef(eV) dHmax(eV)
   scf:    1     -479.114678     -479.097922     -479.097922  0.004904 -5.648955  0.006959
   scf:    2     -479.097922     -479.097926     -479.097926  0.000531 -5.649555  0.009042
   scf:    3     -479.097931     -479.097930     -479.097930  0.000216 -5.648773  0.001415
   scf:    4     -479.097930     -479.097930     -479.097930  0.000034 -5.648669  0.000952

SCF Convergence by DM+H criterion
max |DM_out - DM_in|         :     0.0000338412
max |H_out - H_in|      (eV) :     0.0009522317
SCF cycle converged after 4 iterations

Using DM_out to compute the final energy and forces
No. of atoms with KB's overlaping orbs in proc 0. Max # of overlaps:       3      23

siesta: E_KS(eV) =             -479.0979

siesta: Atomic forces (eV/Ang):
----------------------------------------
   Tot   -0.021289   -0.021289   -0.000000
----------------------------------------
   Max    0.025759
   Res    0.014014    sqrt( Sum f_i^2 / 3N )
----------------------------------------
   Max    0.025759    constrained

Stress-tensor-Voigt (kbar):        0.01        0.01        0.00       -0.00        0.00       -0.00
(Free)E + p*V (eV/cell)     -479.1250
Target enthalpy (eV/cell)     -479.0979

                     ====================================
                        Begin Broyden opt. move =      5
                     ====================================

outcoor: Atomic coordinates (Ang):                          
   10.05150282   10.05150282   10.00000000   1       1  O.gga
   11.01938613    9.93018664   10.00000000   2       2  H.gga
    9.93018664   11.01938614   10.00000000   2       3  H.gga

outcell: Unit cell vectors (Ang):
       20.000000    0.000000    0.000000
        0.000000   20.000000    0.000000
        0.000000    0.000000   20.000000

outcell: Cell vector modules (Ang)   :   20.000000   20.000000   20.000000
outcell: Cell angles (23,13,12) (deg):     90.0000     90.0000     90.0000
outcell: Cell volume (Ang**3)        :   8000.0000
<dSpData1D:S at geom step 5
  <sparsity:sparsity for geom step 5
    nrows_g=23 nrows=23 sparsity=1.0000 nnzs=529, refcount: 7>
  <dData1D:(new from dSpData1D) n=529, refcount: 1>
refcount: 1>
new_DM -- step:     6
Re-using DM from previous geometries...
Number of DMs in history: 1
 DM extrapolation coefficients: 
1   1.00000
New DM after history re-use:
<dSpData2D:SpM extrapolated using coords
  <sparsity:sparsity for geom step 5
    nrows_g=23 nrows=23 sparsity=1.0000 nnzs=529, refcount: 8>
  <dData2D:(temp array for extrapolation) n=529 m=1, refcount: 1>
refcount: 1>
No. of atoms with KB's overlaping orbs in proc 0. Max # of overlaps:       3      23
New grid distribution:   1
           1       1:  108    1:  108    1:  108

InitMesh: MESH =   216 x   216 x   216 =    10077696
InitMesh: (bp) =   108 x   108 x   108 =     1259712
InitMesh: Mesh cutoff (required, used) =   300.000   322.366 Ry
ExtMesh (bp) on 0 =   184 x   184 x   184 =     6229504
PhiOnMesh: Number of (b)points on node 0 =              1259712
PhiOnMesh: nlist on node 0 =               387218

        iscf     Eharris(eV)        E_KS(eV)     FreeEng(eV)     dDmax    Ef(eV) dHmax(eV)
   scf:    1     -479.086542     -479.097943     -479.097943  0.001783 -5.653117  0.011407
   scf:    2     -479.097916     -479.097937     -479.097937  0.000618 -5.646377  0.020602
   scf:    3     -479.097950     -479.097947     -479.097947  0.000397 -5.650796  0.000700
   scf:    4     -479.097947     -479.097947     -479.097947  0.000009 -5.650824  0.000415

SCF Convergence by DM+H criterion
max |DM_out - DM_in|         :     0.0000092207
max |H_out - H_in|      (eV) :     0.0004150270
SCF cycle converged after 4 iterations

Using DM_out to compute the final energy and forces
No. of atoms with KB's overlaping orbs in proc 0. Max # of overlaps:       3      23

siesta: E_KS(eV) =             -479.0979

siesta: Atomic forces (eV/Ang):
----------------------------------------
   Tot   -0.021031   -0.021031    0.000000
----------------------------------------
   Max    0.042014
   Res    0.021714    sqrt( Sum f_i^2 / 3N )
----------------------------------------
   Max    0.042014    constrained

Stress-tensor-Voigt (kbar):       -0.00       -0.00        0.00        0.00        0.00        0.00
(Free)E + p*V (eV/cell)     -479.0954
Target enthalpy (eV/cell)     -479.0979

                     ====================================
                        Begin Broyden opt. move =      6
                     ====================================

outcoor: Atomic coordinates (Ang):                          
   10.05053985   10.05053987   10.00000000   1       1  O.gga
   11.01902978    9.93038187   10.00000000   2       2  H.gga
    9.93038188   11.01902977   10.00000000   2       3  H.gga

outcell: Unit cell vectors (Ang):
       20.000000    0.000000    0.000000
        0.000000   20.000000    0.000000
        0.000000    0.000000   20.000000

outcell: Cell vector modules (Ang)   :   20.000000   20.000000   20.000000
outcell: Cell angles (23,13,12) (deg):     90.0000     90.0000     90.0000
outcell: Cell volume (Ang**3)        :   8000.0000
<dSpData1D:S at geom step 6
  <sparsity:sparsity for geom step 6
    nrows_g=23 nrows=23 sparsity=1.0000 nnzs=529, refcount: 7>
  <dData1D:(new from dSpData1D) n=529, refcount: 1>
refcount: 1>
new_DM -- step:     7
Re-using DM from previous geometries...
Number of DMs in history: 1
 DM extrapolation coefficients: 
1   1.00000
New DM after history re-use:
<dSpData2D:SpM extrapolated using coords
  <sparsity:sparsity for geom step 6
    nrows_g=23 nrows=23 sparsity=1.0000 nnzs=529, refcount: 8>
  <dData2D:(temp array for extrapolation) n=529 m=1, refcount: 1>
refcount: 1>
No. of atoms with KB's overlaping orbs in proc 0. Max # of overlaps:       3      23
New grid distribution:   1
           1       1:  108    1:  108    1:  108

InitMesh: MESH =   216 x   216 x   216 =    10077696
InitMesh: (bp) =   108 x   108 x   108 =     1259712
InitMesh: Mesh cutoff (required, used) =   300.000   322.366 Ry
ExtMesh (bp) on 0 =   184 x   184 x   184 =     6229504
PhiOnMesh: Number of (b)points on node 0 =              1259712
PhiOnMesh: nlist on node 0 =               387151

        iscf     Eharris(eV)        E_KS(eV)     FreeEng(eV)     dDmax    Ef(eV) dHmax(eV)
   scf:    1     -479.104471     -479.097990     -479.097990  0.002072 -5.652187  0.011488
   scf:    2     -479.097963     -479.097984     -479.097984  0.000651 -5.659898  0.021045
   scf:    3     -479.097997     -479.097993     -479.097993  0.000420 -5.654908  0.000576
   scf:    4     -479.097993     -479.097993     -479.097993  0.000009 -5.654914  0.000416

SCF Convergence by DM+H criterion
max |DM_out - DM_in|         :     0.0000085039
max |H_out - H_in|      (eV) :     0.0004158714
SCF cycle converged after 4 iterations

Using DM_out to compute the final energy and forces
No. of atoms with KB's overlaping orbs in proc 0. Max # of overlaps:       3      23

siesta: E_KS(eV) =             -479.0980

siesta: Atomic forces (eV/Ang):
----------------------------------------
   Tot   -0.018717   -0.018717   -0.000000
----------------------------------------
   Max    0.014946
   Res    0.007439    sqrt( Sum f_i^2 / 3N )
----------------------------------------
   Max    0.014946    constrained

Stress-tensor-Voigt (kbar):        0.00        0.00        0.00        0.00        0.00       -0.00
(Free)E + p*V (eV/cell)     -479.1063
Target enthalpy (eV/cell)     -479.0980

                     ====================================
                        Begin Broyden opt. move =      7
                     ====================================

outcoor: Atomic coordinates (Ang):                          
   10.04687220   10.04687204    9.99999994   1       1  O.gga
   11.01457090    9.92891572   10.00000004   2       2  H.gga
    9.92891568   11.01457108    9.99999998   2       3  H.gga

outcell: Unit cell vectors (Ang):
       20.000000    0.000000    0.000000
        0.000000   20.000000    0.000000
        0.000000    0.000000   20.000000

outcell: Cell vector modules (Ang)   :   20.000000   20.000000   20.000000
outcell: Cell angles (23,13,12) (deg):     90.0000     90.0000     90.0000
outcell: Cell volume (Ang**3)        :   8000.0000
<dSpData1D:S at geom step 7
  <sparsity:sparsity for geom step 7
    nrows_g=23 nrows=23 sparsity=1.0000 nnzs=529, refcount: 7>
  <dData1D:(new from dSpData1D) n=529, refcount: 1>
refcount: 1>
new_DM -- step:     8
Re-using DM from previous geometries...
Number of DMs in history: 1
 DM extrapolation coefficients: 
1   1.00000
New DM after history re-use:
<dSpData2D:SpM extrapolated using coords
  <sparsity:sparsity for geom step 7
    nrows_g=23 nrows=23 sparsity=1.0000 nnzs=529, refcount: 8>
  <dData2D:(temp array for extrapolation) n=529 m=1, refcount: 1>
refcount: 1>
No. of atoms with KB's overlaping orbs in proc 0. Max # of overlaps:       3      23
New grid distribution:   1
           1       1:  108    1:  108    1:  108

InitMesh: MESH =   216 x   216 x   216 =    10077696
InitMesh: (bp) =   108 x   108 x   108 =     1259712
InitMesh: Mesh cutoff (required, used) =   300.000   322.366 Ry
ExtMesh (bp) on 0 =   184 x   184 x   184 =     6229504
PhiOnMesh: Number of (b)points on node 0 =              1259712
PhiOnMesh: nlist on node 0 =               387105

        iscf     Eharris(eV)        E_KS(eV)     FreeEng(eV)     dDmax    Ef(eV) dHmax(eV)
   scf:    1     -479.087338     -479.097970     -479.097970  0.002484 -5.663998  0.004783
   scf:    2     -479.097967     -479.097971     -479.097971  0.000334 -5.662440  0.008444
   scf:    3     -479.097974     -479.097973     -479.097973  0.000160 -5.663597  0.000941
   scf:    4     -479.097973     -479.097973     -479.097973  0.000022 -5.663682  0.000640

SCF Convergence by DM+H criterion
max |DM_out - DM_in|         :     0.0000217032
max |H_out - H_in|      (eV) :     0.0006395109
SCF cycle converged after 4 iterations

Using DM_out to compute the final energy and forces
No. of atoms with KB's overlaping orbs in proc 0. Max # of overlaps:       3      23

siesta: E_KS(eV) =             -479.0980

siesta: Atomic forces (eV/Ang):
----------------------------------------
   Tot   -0.011629   -0.011628   -0.000000
----------------------------------------
   Max    0.052836
   Res    0.032895    sqrt( Sum f_i^2 / 3N )
----------------------------------------
   Max    0.052836    constrained

Stress-tensor-Voigt (kbar):       -0.01       -0.01        0.00        0.01       -0.00        0.00
(Free)E + p*V (eV/cell)     -479.0686
Target enthalpy (eV/cell)     -479.0980

                     ====================================
                        Begin Broyden opt. move =      8
                     ====================================

outcoor: Atomic coordinates (Ang):                          
   10.04050836   10.04050900    9.99999980   1       1  O.gga
   11.00925655    9.92047464   10.00000012   2       2  H.gga
    9.92047465   11.00925611    9.99999993   2       3  H.gga

outcell: Unit cell vectors (Ang):
       20.000000    0.000000    0.000000
        0.000000   20.000000    0.000000
        0.000000    0.000000   20.000000

outcell: Cell vector modules (Ang)   :   20.000000   20.000000   20.000000
outcell: Cell angles (23,13,12) (deg):     90.0000     90.0000     90.0000
outcell: Cell volume (Ang**3)        :   8000.0000
<dSpData1D:S at geom step 8
  <sparsity:sparsity for geom step 8
    nrows_g=23 nrows=23 sparsity=1.0000 nnzs=529, refcount: 7>
  <dData1D:(new from dSpData1D) n=529, refcount: 1>
refcount: 1>
new_DM -- step:     9
Re-using DM from previous geometries...
Number of DMs in history: 1
 DM extrapolation coefficients: 
1   1.00000
New DM after history re-use:
<dSpData2D:SpM extrapolated using coords
  <sparsity:sparsity for geom step 8
    nrows_g=23 nrows=23 sparsity=1.0000 nnzs=529, refcount: 8>
  <dData2D:(temp array for extrapolation) n=529 m=1, refcount: 1>
refcount: 1>
No. of atoms with KB's overlaping orbs in proc 0. Max # of overlaps:       3      23
New grid distribution:   1
           1       1:  108    1:  108    1:  108

InitMesh: MESH =   216 x   216 x   216 =    10077696
InitMesh: (bp) =   108 x   108 x   108 =     1259712
InitMesh: Mesh cutoff (required, used) =   300.000   322.366 Ry
ExtMesh (bp) on 0 =   184 x   184 x   184 =     6229504
PhiOnMesh: Number of (b)points on node 0 =              1259712
PhiOnMesh: nlist on node 0 =               387234

        iscf     Eharris(eV)        E_KS(eV)     FreeEng(eV)     dDmax    Ef(eV) dHmax(eV)
   scf:    1     -479.111718     -479.098132     -479.098132  0.002688 -5.654040  0.008399
   scf:    2     -479.098118     -479.098130     -479.098130  0.000421 -5.657873  0.015064
   scf:    3     -479.098138     -479.098136     -479.098136  0.000262 -5.655263  0.001088
   scf:    4     -479.098136     -479.098136     -479.098136  0.000024 -5.655169  0.000754

SCF Convergence by DM+H criterion
max |DM_out - DM_in|         :     0.0000242101
max |H_out - H_in|      (eV) :     0.0007542151
SCF cycle converged after 4 iterations

Using DM_out to compute the final energy and forces
No. of atoms with KB's overlaping orbs in proc 0. Max # of overlaps:       3      23

siesta: E_KS(eV) =             -479.0981

siesta: Atomic forces (eV/Ang):
----------------------------------------
   Tot    0.005109    0.005107   -0.000001
----------------------------------------
   Max    0.019242
   Res    0.010288    sqrt( Sum f_i^2 / 3N )
----------------------------------------
   Max    0.019242    constrained

Stress-tensor-Voigt (kbar):        0.00        0.00        0.00        0.00       -0.00       -0.00
(Free)E + p*V (eV/cell)     -479.1121
Target enthalpy (eV/cell)     -479.0981

                     ====================================
                        Begin Broyden opt. move =      9
                     ====================================

outcoor: Atomic coordinates (Ang):                          
   10.04275695   10.04275642    9.99999982   1       1  O.gga
   11.01124264    9.92218073   10.00000010   2       2  H.gga
    9.92218062   11.01124317    9.99999995   2       3  H.gga

outcell: Unit cell vectors (Ang):
       20.000000    0.000000    0.000000
        0.000000   20.000000    0.000000
        0.000000    0.000000   20.000000

outcell: Cell vector modules (Ang)   :   20.000000   20.000000   20.000000
outcell: Cell angles (23,13,12) (deg):     90.0000     90.0000     90.0000
outcell: Cell volume (Ang**3)        :   8000.0000
<dSpData1D:S at geom step 9
  <sparsity:sparsity for geom step 9
    nrows_g=23 nrows=23 sparsity=1.0000 nnzs=529, refcount: 7>
  <dData1D:(new from dSpData1D) n=529, refcount: 1>
refcount: 1>
new_DM -- step:    10
Re-using DM from previous geometries...
Number of DMs in history: 1
 DM extrapolation coefficients: 
1   1.00000
New DM after history re-use:
<dSpData2D:SpM extrapolated using coords
  <sparsity:sparsity for geom step 9
    nrows_g=23 nrows=23 sparsity=1.0000 nnzs=529, refcount: 8>
  <dData2D:(temp array for extrapolation) n=529 m=1, refcount: 1>
refcount: 1>
No. of atoms with KB's overlaping orbs in proc 0. Max # of overlaps:       3      23
New grid distribution:   1
           1       1:  108    1:  108    1:  108

InitMesh: MESH =   216 x   216 x   216 =    10077696
InitMesh: (bp) =   108 x   108 x   108 =     1259712
InitMesh: Mesh cutoff (required, used) =   300.000   322.366 Ry
ExtMesh (bp) on 0 =   184 x   184 x   184 =     6229504
PhiOnMesh: Number of (b)points on node 0 =              1259712
PhiOnMesh: nlist on node 0 =               387089

        iscf     Eharris(eV)        E_KS(eV)     FreeEng(eV)     dDmax    Ef(eV) dHmax(eV)
   scf:    1     -479.095385     -479.098151     -479.098151  0.000902 -5.654392  0.004775
   scf:    2     -479.098146     -479.098150     -479.098150  0.000266 -5.651261  0.008802
   scf:    3     -479.098152     -479.098151     -479.098151  0.000172 -5.653299  0.000239
   scf:    4     -479.098151     -479.098151     -479.098151  0.000003 -5.653302  0.000173

SCF Convergence by DM+H criterion
max |DM_out - DM_in|         :     0.0000032113
max |H_out - H_in|      (eV) :     0.0001730212
SCF cycle converged after 4 iterations

Using DM_out to compute the final energy and forces
No. of atoms with KB's overlaping orbs in proc 0. Max # of overlaps:       3      23

siesta: E_KS(eV) =             -479.0982

siesta: Atomic forces (eV/Ang):
----------------------------------------
   Tot   -0.000766   -0.000765   -0.000001
----------------------------------------
   Max    0.001931
   Res    0.001316    sqrt( Sum f_i^2 / 3N )
----------------------------------------
   Max    0.001931    constrained

Stress-tensor-Voigt (kbar):        0.00        0.00        0.00        0.00       -0.00        0.00
(Free)E + p*V (eV/cell)     -479.1072
Target enthalpy (eV/cell)     -479.0982

outcoor: Relaxed atomic coordinates (Ang):                  
   10.04275695   10.04275642    9.99999982   1       1  O.gga
   11.01124264    9.92218073   10.00000010   2       2  H.gga
    9.92218062   11.01124317    9.99999995   2       3  H.gga

coxmol: Writing XMOL coordinates into file H2O.xyz                                                             

siesta: Program's energy decomposition (eV):
siesta: Ebs     =      -109.257696
siesta: Eions   =       642.143903
siesta: Ena     =        74.390828
siesta: Ekin    =       329.163554
siesta: Enl     =      -104.803365
siesta: Eso     =         0.000000
siesta: Eldau   =         0.000000
siesta: DEna    =        -7.915812
siesta: DUscf   =         1.153397
siesta: DUext   =         0.000000
siesta: Exc     =      -128.942849
siesta: eta*DQ  =         0.000000
siesta: Emadel  =         0.000000
siesta: Emeta   =         0.000000
siesta: Emolmec =         0.000000
siesta: Ekinion =         0.000000
siesta: Eharris =      -479.098151
siesta: Etot    =      -479.098151
siesta: FreeEng =      -479.098151

siesta: Final energy (eV):
siesta:  Band Struct. =    -109.257696
siesta:       Kinetic =     329.163554
siesta:       Hartree =     512.242550
siesta:       Eldau   =       0.000000
siesta:       Eso     =       0.000000
siesta:    Ext. field =       0.000000
siesta:   Exch.-corr. =    -128.942849
siesta:  Ion-electron =   -1312.797559
siesta:       Ion-ion =     121.236153
siesta:       Ekinion =       0.000000
siesta:         Total =    -479.098151
siesta:         Fermi =      -5.653302

siesta: Stress tensor (static) (eV/Ang**3):
siesta:     0.000000    0.000000   -0.000000
siesta:     0.000000    0.000000   -0.000000
siesta:     0.000000   -0.000000    0.000003

siesta: Cell volume =       8000.000000 Ang**3

siesta: Pressure (static):
siesta:                Solid            Molecule  Units
siesta:          -0.00000001         -0.00000001  Ry/Bohr**3
siesta:          -0.00000113         -0.00000101  eV/Ang**3
siesta:          -0.00181587         -0.00161267  kBar
(Free)E+ p_basis*V_orbitals  =        -477.817006
(Free)Eharris+ p_basis*V_orbitals  =        -477.817006

siesta: Electric dipole (a.u.)  =    0.447553    0.447554    0.000000
siesta: Electric dipole (Debye) =    1.137567    1.137569    0.000000

timer: Elapsed wall time (sec) =     240.296
timer: CPU execution times (sec):

Routine            Calls   Time/call    Tot.time        %
siesta                 1     240.295     240.295   100.00
Setup                  1       0.242       0.242     0.10
bands                  1       0.000       0.000     0.00
KSV_init               1       0.000       0.000     0.00
IterGeom              10      24.005     240.051    99.90
state_init            10       0.019       0.187     0.08
hsparse               10       0.000       0.001     0.00
overlap               10       0.017       0.167     0.07
Setup_H0              10       2.221      22.206     9.24
naefs                 20       0.000       0.002     0.00
MolMec                20       0.000       0.000     0.00
kinefsm               20       0.008       0.152     0.06
nlefsm                20       0.029       0.581     0.24
DHSCF_Init            10       2.149      21.493     8.94
DHSCF1                10       0.112       1.123     0.47
INITMESH              10       0.000       0.000     0.00
DHSCF2                10       2.037      20.370     8.48
REMESH                10       0.026       0.260     0.11
REORD                306       0.027       8.114     3.38
PHION                 10       0.317       3.169     1.32
COMM_BSC             186       0.028       5.139     2.14
POISON                88       1.490     131.122    54.57
fft                  176       0.641     112.802    46.94
IterSCF               58       3.153     182.882    76.11
setup_H               68       2.674     181.840    75.67
DHSCF                 78       2.762     215.434    89.65
DHSCF3                78       2.655     207.080    86.18
rhoofd                78       0.042       3.297     1.37
CellXC                78       0.631      49.213    20.48
cellXC                78       0.631      49.212    20.48
vmat                  78       0.030       2.357     0.98
compute_dm            58       0.006       0.340     0.14
diagon                58       0.002       0.119     0.05
r-eigvec              58       0.001       0.052     0.02
r-buildHS             58       0.001       0.040     0.02
rdiag                 58       0.000       0.012     0.00
rdiag1                58       0.000       0.001     0.00
rdiag2                58       0.000       0.001     0.00
rdiag3                58       0.000       0.009     0.00
rdiag4                58       0.000       0.001     0.00
r-buildD              58       0.000       0.001     0.00
MIXER                 48       0.011       0.533     0.22
PostSCF               10       3.470      34.705    14.44
DHSCF4                10       0.835       8.354     3.48
dfscf                 10       0.411       4.111     1.71
overfsm               10       0.000       0.002     0.00
state_analysis        10       0.001       0.007     0.00
siesta_move           10       0.003       0.028     0.01
Analysis               1       0.001       0.001     0.00
optical                1       0.000       0.000     0.00
  
>> End of run:  25-NOV-2018  15:28:42
Job completed
