
                           ***********************       
                           *  WELCOME TO SIESTA  *       
                           ***********************       

reinit: Reading from input.fdf

reinit: -----------------------------------------------------------------------
reinit: System Name: 
reinit: -----------------------------------------------------------------------
reinit: System Label: Phenol
reinit: -----------------------------------------------------------------------
Siesta Version: siesta-4.1--736
Architecture  : unknown
Compiler flags: gfortran -O3 -fPIC -ftree-vectorize -fopenmp
PP flags      : -DFC_HAVE_ABORT
Libraries     : -L/usr/local/opt/openblas/lib -lopenblas -fopenmp
SERIAL version

* Running in serial mode
* Running 4 OpenMP threads.
* Running 4 processes.
* OpenMP version 201511
* OpenMP runtime schedule DYNAMIC, chunks 1
** OpenMP runtime schedule DYNAMIC, chunks 32
>> Start of run:  22-MAR-2019  10:45:15

initatom: Reading input for the pseudopotentials and atomic orbitals ----------
Species number:   1 Atomic number:    6 Label: C.gga
Species number:   2 Atomic number:    1 Label: H.gga
Species number:   3 Atomic number:    8 Label: O.gga

Ground state valence configuration:   2s02  2p02
Reading pseudopotential information in formatted form from C.gga.psf

Valence configuration for pseudopotential generation:
2s( 2.00) rc: 1.54
2p( 2.00) rc: 1.54
3d( 0.00) rc: 1.54
4f( 0.00) rc: 1.54
Ground state valence configuration:   1s01
Reading pseudopotential information in formatted form from H.gga.psf

Valence configuration for pseudopotential generation:
1s( 1.00) rc: 1.31
2p( 0.00) rc: 1.31
3d( 0.00) rc: 0.37
4f( 0.00) rc: 1.31
Ground state valence configuration:   2s02  2p04
Reading pseudopotential information in formatted form from O.gga.psf

Valence configuration for pseudopotential generation:
2s( 2.00) rc: 1.47
2p( 4.00) rc: 1.47
3d( 0.00) rc: 1.47
4f( 0.00) rc: 1.47
For C.gga, standard SIESTA heuristics set lmxkb to 3
 (one more than the basis l, including polarization orbitals).
Use PS.lmax or PS.KBprojectors blocks to override.
For H.gga, standard SIESTA heuristics set lmxkb to 2
 (one more than the basis l, including polarization orbitals).
Use PS.lmax or PS.KBprojectors blocks to override.
For O.gga, standard SIESTA heuristics set lmxkb to 3
 (one more than the basis l, including polarization orbitals).
Use PS.lmax or PS.KBprojectors blocks to override.

<basis_specs>
===============================================================================
C.gga                Z=   6    Mass=  12.010        Charge= 0.17977+309
Lmxo=1 Lmxkb= 3    BasisType=split      Semic=F
L=0  Nsemic=0  Cnfigmx=2
          n=1  nzeta=2  polorb=0
            splnorm:   0.15000    
               vcte:    0.0000    
               rinn:    0.0000    
               qcoe:    0.0000    
               qyuk:    0.0000    
               qwid:   0.10000E-01
                rcs:    0.0000      0.0000    
            lambdas:    1.0000      1.0000    
L=1  Nsemic=0  Cnfigmx=2
          n=1  nzeta=2  polorb=1
            splnorm:   0.15000    
               vcte:    0.0000    
               rinn:    0.0000    
               qcoe:    0.0000    
               qyuk:    0.0000    
               qwid:   0.10000E-01
                rcs:    0.0000      0.0000    
            lambdas:    1.0000      1.0000    
-------------------------------------------------------------------------------
L=0  Nkbl=1  erefs: 0.17977+309
L=1  Nkbl=1  erefs: 0.17977+309
L=2  Nkbl=1  erefs: 0.17977+309
L=3  Nkbl=1  erefs: 0.17977+309
===============================================================================
</basis_specs>

atom: Called for C.gga                 (Z =   6)

read_vps: Pseudopotential generation method:
read_vps: ATM3      Troullier-Martins                       
Total valence charge:    4.00000

read_vps: Pseudopotential includes a core correction:
read_vps: Pseudo-core for xc-correction

xc_check: Exchange-correlation functional:
xc_check: GGA Perdew, Burke & Ernzerhof 1996
V l=0 = -2*Zval/r beyond r=  1.5227
V l=1 = -2*Zval/r beyond r=  1.5227
V l=2 = -2*Zval/r beyond r=  1.5227
V l=3 = -2*Zval/r beyond r=  1.5038
All V_l potentials equal beyond r=  1.5227
This should be close to max(r_c) in ps generation
All pots = -2*Zval/r beyond r=  1.5227

VLOCAL1: 99.0% of the norm of Vloc inside     18.722 Ry
VLOCAL1: 99.9% of the norm of Vloc inside     42.668 Ry
atom: Maximum radius for 4*pi*r*r*local-pseudopot. charge    1.83678
atom: Maximum radius for r*vlocal+2*Zval:    1.58088
GHOST: No ghost state for L =  0
GHOST: No ghost state for L =  1
GHOST: No ghost state for L =  2
GHOST: No ghost state for L =  3

KBgen: Kleinman-Bylander projectors: 
   l= 0   rc=  1.704034   el= -1.009801   Ekb=  5.335044   kbcos=  0.316824
   l= 1   rc=  1.704034   el= -0.388707   Ekb= -3.785862   kbcos= -0.366464
   l= 2   rc=  1.791422   el=  0.001971   Ekb= -0.970471   kbcos= -0.009212
   l= 3   rc=  1.859892   el=  0.003065   Ekb= -0.399525   kbcos= -0.001223

KBgen: Total number of  Kleinman-Bylander projectors:   16
atom: -------------------------------------------------------------------------

atom: SANKEY-TYPE ORBITALS:
atom: Selected multiple-zeta basis: split     

SPLIT: Orbitals with angular momentum L= 0

SPLIT: Basis orbitals for state 2s

SPLIT: PAO cut-off radius determined from an
SPLIT: energy shift=  0.002205 Ry

   izeta = 1
                 lambda =    1.000000
                     rc =    5.382558
                 energy =   -1.007983
                kinetic =    0.829025
    potential(screened) =   -1.837009
       potential(ionic) =   -5.376592

   izeta = 2
                 rmatch =    3.475094
              splitnorm =    0.150000
                 energy =   -0.876935
                kinetic =    1.279964
    potential(screened) =   -2.156899
       potential(ionic) =   -5.943761

SPLIT: Orbitals with angular momentum L= 1

SPLIT: Basis orbitals for state 2p

SPLIT: PAO cut-off radius determined from an
SPLIT: energy shift=  0.002205 Ry

   izeta = 1
                 lambda =    1.000000
                     rc =    6.740804
                 energy =   -0.386704
                kinetic =    2.327316
    potential(screened) =   -2.714020
       potential(ionic) =   -6.100339

   izeta = 2
                 rmatch =    3.792903
              splitnorm =    0.150000
                 energy =   -0.270625
                kinetic =    3.420974
    potential(screened) =   -3.691599
       potential(ionic) =   -7.453004

POLgen: Perturbative polarization orbital with L=  2

POLgen: Polarization orbital for state 2p

   izeta = 1
                     rc =    6.740804
                 energy =    0.975645
                kinetic =    2.058046
    potential(screened) =   -1.082401
       potential(ionic) =   -3.782952
atom: Total number of Sankey-type orbitals: 13

atm_pop: Valence configuration (for local Pseudopot. screening):
 2s( 2.00)                                                            
 2p( 2.00)                                                            
Vna: chval, zval:    4.00000   4.00000

Vna:  Cut-off radius for the neutral-atom potential:   6.740804
comcore: Pseudo-core radius Rcore=  1.791422

atom: _________________________________________________________________________

<basis_specs>
===============================================================================
H.gga                Z=   1    Mass=  1.0100        Charge= 0.17977+309
Lmxo=0 Lmxkb= 2    BasisType=split      Semic=F
L=0  Nsemic=0  Cnfigmx=1
          n=1  nzeta=2  polorb=1
            splnorm:   0.15000    
               vcte:    0.0000    
               rinn:    0.0000    
               qcoe:    0.0000    
               qyuk:    0.0000    
               qwid:   0.10000E-01
                rcs:    0.0000      0.0000    
            lambdas:    1.0000      1.0000    
-------------------------------------------------------------------------------
L=0  Nkbl=1  erefs: 0.17977+309
L=1  Nkbl=1  erefs: 0.17977+309
L=2  Nkbl=1  erefs: 0.17977+309
===============================================================================
</basis_specs>

atom: Called for H.gga                 (Z =   1)

read_vps: Pseudopotential generation method:
read_vps: ATM3      Troullier-Martins                       
Total valence charge:    1.00000

xc_check: Exchange-correlation functional:
xc_check: GGA Perdew, Burke & Ernzerhof 1996
V l=0 = -2*Zval/r beyond r=  1.2977
V l=1 = -2*Zval/r beyond r=  1.2815
V l=2 = -2*Zval/r beyond r=  1.2656
All V_l potentials equal beyond r=  1.2977
This should be close to max(r_c) in ps generation
All pots = -2*Zval/r beyond r=  1.2977

VLOCAL1: 99.0% of the norm of Vloc inside     25.776 Ry
VLOCAL1: 99.9% of the norm of Vloc inside     58.745 Ry
atom: Maximum radius for 4*pi*r*r*local-pseudopot. charge    1.52711
atom: Maximum radius for r*vlocal+2*Zval:    1.28155
GHOST: No ghost state for L =  0
GHOST: No ghost state for L =  1
GHOST: No ghost state for L =  2

KBgen: Kleinman-Bylander projectors: 
   l= 0   rc=  1.434438   el= -0.477200   Ekb= -1.957043   kbcos= -0.361614
   l= 1   rc=  1.508111   el=  0.001076   Ekb= -0.424224   kbcos= -0.025441
   l= 2   rc=  1.527112   el=  0.002010   Ekb= -0.378578   kbcos= -0.002010

KBgen: Total number of  Kleinman-Bylander projectors:    9
atom: -------------------------------------------------------------------------

atom: SANKEY-TYPE ORBITALS:
atom: Selected multiple-zeta basis: split     

SPLIT: Orbitals with angular momentum L= 0

SPLIT: Basis orbitals for state 1s

SPLIT: PAO cut-off radius determined from an
SPLIT: energy shift=  0.002205 Ry

   izeta = 1
                 lambda =    1.000000
                     rc =    6.518340
                 energy =   -0.475328
                kinetic =    0.879188
    potential(screened) =   -1.354517
       potential(ionic) =   -1.873657

   izeta = 2
                 rmatch =    4.103729
              splitnorm =    0.150000
                 energy =   -0.382914
                kinetic =    1.427335
    potential(screened) =   -1.810249
       potential(ionic) =   -2.357086

POLgen: Perturbative polarization orbital with L=  1

POLgen: Polarization orbital for state 1s

   izeta = 1
                     rc =    6.518340
                 energy =    0.536347
                kinetic =    1.136516
    potential(screened) =   -0.600169
       potential(ionic) =   -1.065665
atom: Total number of Sankey-type orbitals:  5

atm_pop: Valence configuration (for local Pseudopot. screening):
 1s( 1.00)                                                            
Vna: chval, zval:    1.00000   1.00000

Vna:  Cut-off radius for the neutral-atom potential:   6.518340

atom: _________________________________________________________________________

<basis_specs>
===============================================================================
O.gga                Z=   8    Mass=  16.000        Charge= 0.17977+309
Lmxo=1 Lmxkb= 3    BasisType=split      Semic=F
L=0  Nsemic=0  Cnfigmx=2
          n=1  nzeta=2  polorb=0
            splnorm:   0.15000    
               vcte:    0.0000    
               rinn:    0.0000    
               qcoe:    0.0000    
               qyuk:    0.0000    
               qwid:   0.10000E-01
                rcs:    0.0000      0.0000    
            lambdas:    1.0000      1.0000    
L=1  Nsemic=0  Cnfigmx=2
          n=1  nzeta=2  polorb=1
            splnorm:   0.15000    
               vcte:    0.0000    
               rinn:    0.0000    
               qcoe:    0.0000    
               qyuk:    0.0000    
               qwid:   0.10000E-01
                rcs:    0.0000      0.0000    
            lambdas:    1.0000      1.0000    
-------------------------------------------------------------------------------
L=0  Nkbl=1  erefs: 0.17977+309
L=1  Nkbl=1  erefs: 0.17977+309
L=2  Nkbl=1  erefs: 0.17977+309
L=3  Nkbl=1  erefs: 0.17977+309
===============================================================================
</basis_specs>

atom: Called for O.gga                 (Z =   8)

read_vps: Pseudopotential generation method:
read_vps: ATM3      Troullier-Martins                       
Total valence charge:    6.00000

read_vps: Pseudopotential includes a core correction:
read_vps: Pseudo-core for xc-correction

xc_check: Exchange-correlation functional:
xc_check: GGA Perdew, Burke & Ernzerhof 1996
V l=0 = -2*Zval/r beyond r=  1.4482
V l=1 = -2*Zval/r beyond r=  1.4482
V l=2 = -2*Zval/r beyond r=  1.4482
V l=3 = -2*Zval/r beyond r=  1.4482
All V_l potentials equal beyond r=  1.4482
This should be close to max(r_c) in ps generation
All pots = -2*Zval/r beyond r=  1.4482

VLOCAL1: 99.0% of the norm of Vloc inside     20.696 Ry
VLOCAL1: 99.9% of the norm of Vloc inside     47.167 Ry
atom: Maximum radius for 4*pi*r*r*local-pseudopot. charge    1.74697
atom: Maximum radius for r*vlocal+2*Zval:    1.52250
GHOST: No ghost state for L =  0
GHOST: No ghost state for L =  1
GHOST: No ghost state for L =  2
GHOST: No ghost state for L =  3

KBgen: Kleinman-Bylander projectors: 
   l= 0   rc=  1.620715   el= -1.757696   Ekb=  4.880948   kbcos=  0.293490
   l= 1   rc=  1.600578   el= -0.664256   Ekb= -6.909822   kbcos= -0.499892
   l= 2   rc=  1.703827   el=  0.002031   Ekb= -1.539219   kbcos= -0.006778
   l= 3   rc=  1.746967   el=  0.003153   Ekb= -0.568983   kbcos= -0.000967

KBgen: Total number of  Kleinman-Bylander projectors:   16
atom: -------------------------------------------------------------------------

atom: SANKEY-TYPE ORBITALS:
atom: Selected multiple-zeta basis: split     

SPLIT: Orbitals with angular momentum L= 0

SPLIT: Basis orbitals for state 2s

SPLIT: PAO cut-off radius determined from an
SPLIT: energy shift=  0.002205 Ry

   izeta = 1
                 lambda =    1.000000
                     rc =    4.139122
                 energy =   -1.755549
                kinetic =    1.529685
    potential(screened) =   -3.285233
       potential(ionic) =  -11.160563

   izeta = 2
                 rmatch =    2.541963
              splitnorm =    0.150000
                 energy =   -1.517776
                kinetic =    2.348222
    potential(screened) =   -3.865999
       potential(ionic) =  -12.356890

SPLIT: Orbitals with angular momentum L= 1

SPLIT: Basis orbitals for state 2p

SPLIT: PAO cut-off radius determined from an
SPLIT: energy shift=  0.002205 Ry

   izeta = 1
                 lambda =    1.000000
                     rc =    5.314825
                 energy =   -0.662390
                kinetic =    4.472446
    potential(screened) =   -5.134836
       potential(ionic) =  -12.694617

   izeta = 2
                 rmatch =    2.705925
              splitnorm =    0.150000
                 energy =   -0.427537
                kinetic =    6.597007
    potential(screened) =   -7.024544
       potential(ionic) =  -15.479186

POLgen: Perturbative polarization orbital with L=  2

POLgen: Polarization orbital for state 2p

   izeta = 1
                     rc =    5.314825
                 energy =    1.979175
                kinetic =    4.015874
    potential(screened) =   -2.036699
       potential(ionic) =   -7.919671
atom: Total number of Sankey-type orbitals: 13

atm_pop: Valence configuration (for local Pseudopot. screening):
 2s( 2.00)                                                            
 2p( 4.00)                                                            
Vna: chval, zval:    6.00000   6.00000

Vna:  Cut-off radius for the neutral-atom potential:   5.314825
comcore: Pseudo-core radius Rcore=  1.377587

atom: _________________________________________________________________________

prinput: Basis input ----------------------------------------------------------

PAO.BasisType split     

%block ChemicalSpeciesLabel
    1    6 C.gga                   # Species index, atomic number, species label
    2    1 H.gga                   # Species index, atomic number, species label
    3    8 O.gga                   # Species index, atomic number, species label
%endblock ChemicalSpeciesLabel

%block PAO.Basis                 # Define Basis set
C.gga                 2                    # Species label, number of l-shells
 n=2   0   2                         # n, l, Nzeta 
   5.383      3.475   
   1.000      1.000   
 n=2   1   2 P   1                   # n, l, Nzeta, Polarization, NzetaPol
   6.741      3.793   
   1.000      1.000   
H.gga                 1                    # Species label, number of l-shells
 n=1   0   2 P   1                   # n, l, Nzeta, Polarization, NzetaPol
   6.518      4.104   
   1.000      1.000   
O.gga                 2                    # Species label, number of l-shells
 n=2   0   2                         # n, l, Nzeta 
   4.139      2.542   
   1.000      1.000   
 n=2   1   2 P   1                   # n, l, Nzeta, Polarization, NzetaPol
   5.315      2.706   
   1.000      1.000   
%endblock PAO.Basis

prinput: ----------------------------------------------------------------------

coor:   Atomic-coordinates input format  =     Cartesian coordinates
coor:                                          (in Angstroms)

siesta: Atomic coordinates (Bohr) and species
siesta:      4.13884   2.11496   0.00000  1        1
siesta:      6.44149   3.41145   0.00000  1        2
siesta:      6.47265   6.05474   0.00000  1        3
siesta:      4.19960   7.40994   0.00000  1        4
siesta:      1.88980   6.10327   0.00000  1        5
siesta:      1.86435   3.46007   0.00000  1        6
siesta:      2.71593  10.95093   0.00000  2        7
siesta:      4.11709   0.06975   0.00000  2        8
siesta:      8.20111   2.36877   0.00000  2        9
siesta:      8.26045   7.04989   0.00000  2       10
siesta:      0.12145   7.13257   0.00000  2       11
siesta:      0.08288   2.45511   0.00000  2       12
siesta:      4.25190   9.95775   0.00000  3       13

siesta: System type = molecule  

initatomlists: Number of atoms, orbitals, and projectors:     13   121   166

coxmol: Writing XMOL coordinates into file Phenol.xyz                                                          

siesta: ******************** Simulation parameters ****************************
siesta:
siesta: The following are some of the parameters of the simulation.
siesta: A complete list of the parameters used, including default values,
siesta: can be found in file out.fdf
siesta:
redata: Spin configuration                          = none
redata: Number of spin components                   = 1
redata: Time-Reversal Symmetry                      = T
redata: Spin-spiral                                 = F
redata: Long output                                 =   F
redata: Number of Atomic Species                    =        3
redata: Charge density info will appear in .RHO file
redata: Write Mulliken Pop.                         = NO
redata: Mesh Cutoff                                 =   300.0000 Ry
redata: Net charge of the system                    =     0.0000 |e|
redata: Min. number of SCF Iter                     =        0
redata: Max. number of SCF Iter                     =     1000
redata: SCF mix quantity                            = Hamiltonian
redata: Mix DM or H after convergence               =   F
redata: Recompute H after scf cycle                 =   F
redata: Mix DM in first SCF step                    =   T
redata: Write Pulay info on disk                    =   F
redata: New DM Mixing Weight                        =     0.2500
redata: New DM Occupancy tolerance                  = 0.000000000001
redata: No kicks to SCF
redata: DM Mixing Weight for Kicks                  =     0.5000
redata: Require Harris convergence for SCF          =   F
redata: Harris energy tolerance for SCF             =     0.000100 eV
redata: Require DM convergence for SCF              =   T
redata: DM tolerance for SCF                        =     0.0001
redata: Require EDM convergence for SCF             =   F
redata: EDM tolerance for SCF                       =     0.001000 eV
redata: Require H convergence for SCF               =   T
redata: Hamiltonian tolerance for SCF               =     0.001000 eV
redata: Require (free) Energy convergence for SCF   =   F
redata: (free) Energy tolerance for SCF             =     0.000100 eV
redata: Using Saved Data (generic)                  =   F
redata: Use continuation files for DM               =   F
redata: Neglect nonoverlap interactions             =   F
redata: Method of Calculation                       = Diagonalization
redata: Divide and Conquer                          =   T
redata: Electronic Temperature                      =   299.9869 K
redata: Fix the spin of the system                  =   F
redata: Dynamics option                             = FIRE coord. optimization
redata: Variable cell                               =   F
redata: Use continuation files for CG               =   F
redata: Max atomic displ per move                   =     0.1058 Ang
redata: Maximum number of CG moves                  =     1000
redata: Force tolerance                             =     0.0100 eV/Ang
mix.SCF: Pulay mixing                            = Pulay
mix.SCF:    Variant                              = stable
mix.SCF:    History steps                        = 2
mix.SCF:    Linear mixing weight                 =     0.250000
mix.SCF:    Mixing weight                        =     0.250000
mix.SCF:    SVD condition                        = 0.1000E-07
redata: ***********************************************************************

%block SCF.Mixers
  Pulay
%endblock SCF.Mixers

%block SCF.Mixer.Pulay
  # Mixing method
  method pulay
  variant stable

  # Mixing options
  weight 0.2500
  weight.linear 0.2500
  history 2
%endblock SCF.Mixer.Pulay

DM_history_depth set to one: no extrapolation allowed by default for geometry relaxation
Size of DM history Fstack: 1
Total number of electrons:    36.000000
Total ionic charge:    36.000000
 Kpoints in:            1 . Kpoints trimmed:            1

siesta: k-grid: Number of k-points =     1
siesta: k-grid: Cutoff (effective) =    10.000 Ang
siesta: k-grid: Supercell and displacements
siesta: k-grid:    1   0   0      0.000
siesta: k-grid:    0   1   0      0.000
siesta: k-grid:    0   0   1      0.000


                     ====================================
                        Begin FIRE opt. move =      0
                     ====================================

outcoor: Atomic coordinates (Ang):                          
    2.19018000    1.11919000    0.00000000   1       1  C.gga
    3.40869000    1.80526000    0.00000000   1       2  C.gga
    3.42518000    3.20403000    0.00000000   1       3  C.gga
    2.22233000    3.92117000    0.00000000   1       4  C.gga
    1.00004000    3.22971000    0.00000000   1       5  C.gga
    0.98657000    1.83099000    0.00000000   1       6  C.gga
    1.43721000    5.79498000    0.00000000   2       7  H.gga
    2.17867000    0.03691000    0.00000000   2       8  H.gga
    4.33984000    1.25350000    0.00000000   2       9  H.gga
    4.37124000    3.73064000    0.00000000   2      10  H.gga
    0.06427000    3.77439000    0.00000000   2      11  H.gga
    0.04386000    1.29919000    0.00000000   2      12  H.gga
    2.25001000    5.26941000    0.00000000   3      13  O.gga

outcell: Unit cell vectors (Ang):
       20.000000    0.000000    0.000000
        0.000000   20.000000    0.000000
        0.000000    0.000000   20.000000

outcell: Cell vector modules (Ang)   :   20.000000   20.000000   20.000000
outcell: Cell angles (23,13,12) (deg):     90.0000     90.0000     90.0000
outcell: Cell volume (Ang**3)        :   8000.0000
<dSpData1D:S at geom step 0
  <sparsity:sparsity for geom step 0
    nrows_g=121 nrows=121 sparsity=.9985 nnzs=14619, refcount: 7>
  <dData1D:(new from dSpData1D) n=14619, refcount: 1>
refcount: 1>
new_DM -- step:     1
Initializing Density Matrix...
DM filled with atomic data:
<dSpData2D:DM initialized from atoms
  <sparsity:sparsity for geom step 0
    nrows_g=121 nrows=121 sparsity=.9985 nnzs=14619, refcount: 8>
  <dData2D:DM n=14619 m=1, refcount: 1>
refcount: 1>

No. of atoms with KB's overlaping orbs in proc 0. Max # of overlaps:      13     118
New grid distribution:   1
           1       1:  108    1:  108    1:  108

InitMesh: MESH =   216 x   216 x   216 =    10077696
InitMesh: (bp) =   108 x   108 x   108 =     1259712
InitMesh: Mesh cutoff (required, used) =   300.000   322.366 Ry
ExtMesh (bp) on 0 =   188 x   188 x   188 =     6644672
PhiOnMesh: Number of (b)points on node 0 =              1259712
PhiOnMesh: nlist on node 0 =              2631478

stepf: Fermi-Dirac step function

siesta: Program's energy decomposition (eV):
siesta: Ebs     =      -344.576689
siesta: Eions   =      2250.705553
siesta: Ena     =       437.721806
siesta: Ekin    =      1102.942223
siesta: Enl     =      -208.796467
siesta: Eso     =         0.000000
siesta: Eldau   =         0.000000
siesta: DEna    =       -89.938200
siesta: DUscf   =        14.261340
siesta: DUext   =         0.000000
siesta: Exc     =      -516.434064
siesta: eta*DQ  =         0.000000
siesta: Emadel  =         0.000000
siesta: Emeta   =         0.000000
siesta: Emolmec =         0.000000
siesta: Ekinion =         0.000000
siesta: Eharris =     -1501.243932
siesta: Etot    =     -1510.948914
siesta: FreeEng =     -1510.948914

        iscf     Eharris(eV)        E_KS(eV)     FreeEng(eV)     dDmax    Ef(eV) dHmax(eV)
   scf:    1    -1501.243932    -1510.948914    -1510.948914  1.981527 -8.456082 10.306345
timer: Routine,Calls,Time,% = IterSCF        1       5.295  43.16
   scf:    2    -1517.139230    -1514.422590    -1514.422590  0.135728 -4.893288  4.863545
   scf:    3    -1515.802749    -1515.449627    -1515.449627  0.127516 -3.238067  0.762522
   scf:    4    -1515.528109    -1515.492389    -1515.492389  0.009057 -3.220560  0.522410
   scf:    5    -1515.520476    -1515.508503    -1515.508503  0.009633 -3.175778  0.235011
   scf:    6    -1515.512135    -1515.510513    -1515.510513  0.005920 -3.123677  0.093759
   scf:    7    -1515.510864    -1515.510737    -1515.510737  0.004034 -3.074399  0.030214
   scf:    8    -1515.510961    -1515.510860    -1515.510860  0.000374 -3.071118  0.019974
   scf:    9    -1515.510937    -1515.510904    -1515.510904  0.000450 -3.070035  0.010220
   scf:   10    -1515.510914    -1515.510909    -1515.510909  0.000249 -3.070620  0.005267
   scf:   11    -1515.510912    -1515.510911    -1515.510911  0.000269 -3.071562  0.000877
   scf:   12    -1515.510911    -1515.510911    -1515.510911  0.000019 -3.071732  0.000515

SCF Convergence by DM+H criterion
max |DM_out - DM_in|         :     0.0000185880
max |H_out - H_in|      (eV) :     0.0005148364
SCF cycle converged after 12 iterations

Using DM_out to compute the final energy and forces
No. of atoms with KB's overlaping orbs in proc 0. Max # of overlaps:      13     118

siesta: E_KS(eV) =            -1515.5109

siesta: E_KS - E_eggbox =     -1515.5109

siesta: Atomic forces (eV/Ang):
----------------------------------------
   Tot    0.047125   -0.026207    0.000000
----------------------------------------
   Max    1.738037
   Res    0.565159    sqrt( Sum f_i^2 / 3N )
----------------------------------------
   Max    1.738037    constrained

Stress-tensor-Voigt (kbar):       -1.20       -1.05        0.00       -0.25       -0.00       -0.00
(Free)E + p*V (eV/cell)    -1511.7825
Target enthalpy (eV/cell)    -1515.5109
FIRE: No of elements:     39

                     ====================================
                        Begin FIRE opt. move =      1
                     ====================================

outcoor: Atomic coordinates (Ang):                          
    2.19030192    1.11950503    0.00000000   1       1  C.gga
    3.40327575    1.80849912    0.00000000   1       2  C.gga
    3.42690285    3.20302124    0.00000000   1       3  C.gga
    2.20973207    3.91997659   -0.00000000   1       4  C.gga
    1.00185670    3.22419272    0.00000000   1       5  C.gga
    0.99036018    1.83376703   -0.00000000   1       6  C.gga
    1.43107999    5.78777127   -0.00000000   2       7  H.gga
    2.17852678    0.02773914    0.00000000   2       8  H.gga
    4.34800514    1.24933898    0.00000000   2       9  H.gga
    4.37850015    3.73618277   -0.00000000   2      10  H.gga
    0.05650897    3.77994686   -0.00000000   2      11  H.gga
    0.03562869    1.29488561    0.00000000   2      12  H.gga
    2.26789574    5.28427394    0.00000000   3      13  O.gga

outcell: Unit cell vectors (Ang):
       20.000000    0.000000    0.000000
        0.000000   20.000000    0.000000
        0.000000    0.000000   20.000000

outcell: Cell vector modules (Ang)   :   20.000000   20.000000   20.000000
outcell: Cell angles (23,13,12) (deg):     90.0000     90.0000     90.0000
outcell: Cell volume (Ang**3)        :   8000.0000
<dSpData1D:S at geom step 1
  <sparsity:sparsity for geom step 1
    nrows_g=121 nrows=121 sparsity=.9981 nnzs=14613, refcount: 7>
  <dData1D:(new from dSpData1D) n=14613, refcount: 1>
refcount: 1>
new_DM -- step:     2
Re-using DM from previous geometries...
Number of DMs in history: 1
 DM extrapolation coefficients: 
1   1.00000
New DM after history re-use:
<dSpData2D:SpM extrapolated using coords
  <sparsity:sparsity for geom step 1
    nrows_g=121 nrows=121 sparsity=.9981 nnzs=14613, refcount: 8>
  <dData2D:(temp array for extrapolation) n=14613 m=1, refcount: 1>
refcount: 1>
No. of atoms with KB's overlaping orbs in proc 0. Max # of overlaps:      13     118
New grid distribution:   1
           1       1:  108    1:  108    1:  108

InitMesh: MESH =   216 x   216 x   216 =    10077696
InitMesh: (bp) =   108 x   108 x   108 =     1259712
InitMesh: Mesh cutoff (required, used) =   300.000   322.366 Ry
ExtMesh (bp) on 0 =   188 x   188 x   188 =     6644672
PhiOnMesh: Number of (b)points on node 0 =              1259712
PhiOnMesh: nlist on node 0 =              2631445

        iscf     Eharris(eV)        E_KS(eV)     FreeEng(eV)     dDmax    Ef(eV) dHmax(eV)
   scf:    1    -1515.960398    -1515.594989    -1515.594989  0.060365 -2.923829  0.358773
   scf:    2    -1515.528429    -1515.578367    -1515.578367  0.018825 -2.906151  0.675457
   scf:    3    -1515.607746    -1515.600813    -1515.600813  0.012639 -2.927317  0.018478
   scf:    4    -1515.600874    -1515.600847    -1515.600847  0.000465 -2.928728  0.009359
   scf:    5    -1515.600869    -1515.600859    -1515.600859  0.000394 -2.928594  0.005009
   scf:    6    -1515.600864    -1515.600862    -1515.600862  0.000198 -2.928011  0.002903
   scf:    7    -1515.600863    -1515.600863    -1515.600863  0.000169 -2.927475  0.000618
   scf:    8    -1515.600863    -1515.600863    -1515.600863  0.000023 -2.927440  0.000445

SCF Convergence by DM+H criterion
max |DM_out - DM_in|         :     0.0000225782
max |H_out - H_in|      (eV) :     0.0004445680
SCF cycle converged after 8 iterations

Using DM_out to compute the final energy and forces
No. of atoms with KB's overlaping orbs in proc 0. Max # of overlaps:      13     118

siesta: E_KS(eV) =            -1515.6009

siesta: Atomic forces (eV/Ang):
----------------------------------------
   Tot    0.016059    0.005365   -0.000000
----------------------------------------
   Max    0.960481
   Res    0.337799    sqrt( Sum f_i^2 / 3N )
----------------------------------------
   Max    0.960481    constrained

Stress-tensor-Voigt (kbar):       -0.90       -0.84        0.00       -0.33        0.00       -0.00
(Free)E + p*V (eV/cell)    -1512.7077
Target enthalpy (eV/cell)    -1515.6009

                     ====================================
                        Begin FIRE opt. move =      2
                     ====================================

outcoor: Atomic coordinates (Ang):                          
    2.18886732    1.11514303    0.00000000   1       1  C.gga
    3.39698929    1.81365276   -0.00000000   1       2  C.gga
    3.42860739    3.20560181   -0.00000000   1       3  C.gga
    2.18696183    3.92271231   -0.00000000   1       4  C.gga
    0.99689655    3.21700207   -0.00000000   1       5  C.gga
    0.99492327    1.83296005    0.00000000   1       6  C.gga
    1.41702480    5.76470195   -0.00000000   2       7  H.gga
    2.17815182    0.00391323    0.00000000   2       8  H.gga
    4.36707527    1.24000080    0.00000000   2       9  H.gga
    4.39749563    3.75147925   -0.00000000   2      10  H.gga
    0.03755009    3.79336163   -0.00000000   2      11  H.gga
    0.01584365    1.28488596    0.00000000   2      12  H.gga
    2.31328149    5.32327369    0.00000000   3      13  O.gga

outcell: Unit cell vectors (Ang):
       20.000000    0.000000    0.000000
        0.000000   20.000000    0.000000
        0.000000    0.000000   20.000000

outcell: Cell vector modules (Ang)   :   20.000000   20.000000   20.000000
outcell: Cell angles (23,13,12) (deg):     90.0000     90.0000     90.0000
outcell: Cell volume (Ang**3)        :   8000.0000
<dSpData1D:S at geom step 2
  <sparsity:sparsity for geom step 2
    nrows_g=121 nrows=121 sparsity=.9981 nnzs=14613, refcount: 7>
  <dData1D:(new from dSpData1D) n=14613, refcount: 1>
refcount: 1>
new_DM -- step:     3
Re-using DM from previous geometries...
Number of DMs in history: 1
 DM extrapolation coefficients: 
1   1.00000
New DM after history re-use:
<dSpData2D:SpM extrapolated using coords
  <sparsity:sparsity for geom step 2
    nrows_g=121 nrows=121 sparsity=.9981 nnzs=14613, refcount: 8>
  <dData2D:(temp array for extrapolation) n=14613 m=1, refcount: 1>
refcount: 1>
Note: For starting DM, Qtot, Tr[D*S] =         36.00000000         35.89735698
No. of atoms with KB's overlaping orbs in proc 0. Max # of overlaps:      13     118
New grid distribution:   1
           1       1:  108    1:  108    1:  108

InitMesh: MESH =   216 x   216 x   216 =    10077696
InitMesh: (bp) =   108 x   108 x   108 =     1259712
InitMesh: Mesh cutoff (required, used) =   300.000   322.366 Ry
ExtMesh (bp) on 0 =   188 x   188 x   188 =     6644672
PhiOnMesh: Number of (b)points on node 0 =              1259712
PhiOnMesh: nlist on node 0 =              2631233

        iscf     Eharris(eV)        E_KS(eV)     FreeEng(eV)     dDmax    Ef(eV) dHmax(eV)
   scf:    1    -1516.450099    -1515.579530    -1515.579530  0.131415 -4.827489  0.708929
   scf:    2    -1515.206309    -1515.482515    -1515.482515  0.050062 -4.667899  1.507579
   scf:    3    -1515.642765    -1515.606521    -1515.606521  0.034185 -4.796455  0.040631
   scf:    4    -1515.606839    -1515.606694    -1515.606694  0.001336 -4.798172  0.020156
   scf:    5    -1515.606825    -1515.606764    -1515.606764  0.001117 -4.796888  0.011251
   scf:    6    -1515.606794    -1515.606780    -1515.606780  0.000502 -4.795273  0.006161
   scf:    7    -1515.606790    -1515.606785    -1515.606785  0.000454 -4.793878  0.001518
   scf:    8    -1515.606786    -1515.606786    -1515.606786  0.000070 -4.793855  0.001039
   scf:    9    -1515.606786    -1515.606786    -1515.606786  0.000069 -4.793942  0.000500

SCF Convergence by DM+H criterion
max |DM_out - DM_in|         :     0.0000690775
max |H_out - H_in|      (eV) :     0.0004998925
SCF cycle converged after 9 iterations

Using DM_out to compute the final energy and forces
No. of atoms with KB's overlaping orbs in proc 0. Max # of overlaps:      13     118

siesta: E_KS(eV) =            -1515.6068

siesta: Atomic forces (eV/Ang):
----------------------------------------
   Tot   -0.016070    0.006607    0.000000
----------------------------------------
   Max    2.026739
   Res    0.681603    sqrt( Sum f_i^2 / 3N )
----------------------------------------
   Max    2.026739    constrained

Stress-tensor-Voigt (kbar):       -0.16       -0.22        0.00       -0.30        0.00        0.00
(Free)E + p*V (eV/cell)    -1514.9935
Target enthalpy (eV/cell)    -1515.6068

                     ====================================
                        Begin FIRE opt. move =      3
                     ====================================

outcoor: Atomic coordinates (Ang):                          
    2.18755841    1.10586788   -0.00000000   1       1  C.gga
    3.41034793    1.80765982    0.00000000   1       2  C.gga
    3.42534783    3.21413364   -0.00000000   1       3  C.gga
    2.20781854    3.93450611    0.00000000   1       4  C.gga
    0.98165842    3.23004036   -0.00000000   1       5  C.gga
    0.98384770    1.82015378    0.00000000   1       6  C.gga
    1.42429314    5.75799081    0.00000000   2       7  H.gga
    2.17817413    0.00543133   -0.00000000   2       8  H.gga
    4.36219707    1.24337040    0.00000000   2       9  H.gga
    4.39508661    3.75177881    0.00000000   2      10  H.gga
    0.03944358    3.79107561   -0.00000000   2      11  H.gga
    0.01968351    1.28728019   -0.00000000   2      12  H.gga
    2.30404617    5.31946780   -0.00000000   3      13  O.gga

outcell: Unit cell vectors (Ang):
       20.000000    0.000000    0.000000
        0.000000   20.000000    0.000000
        0.000000    0.000000   20.000000

outcell: Cell vector modules (Ang)   :   20.000000   20.000000   20.000000
outcell: Cell angles (23,13,12) (deg):     90.0000     90.0000     90.0000
outcell: Cell volume (Ang**3)        :   8000.0000
<dSpData1D:S at geom step 3
  <sparsity:sparsity for geom step 3
    nrows_g=121 nrows=121 sparsity=.9980 nnzs=14611, refcount: 7>
  <dData1D:(new from dSpData1D) n=14611, refcount: 1>
refcount: 1>
new_DM -- step:     4
Re-using DM from previous geometries...
Number of DMs in history: 1
 DM extrapolation coefficients: 
1   1.00000
New DM after history re-use:
<dSpData2D:SpM extrapolated using coords
  <sparsity:sparsity for geom step 3
    nrows_g=121 nrows=121 sparsity=.9980 nnzs=14611, refcount: 8>
  <dData2D:(temp array for extrapolation) n=14611 m=1, refcount: 1>
refcount: 1>
No. of atoms with KB's overlaping orbs in proc 0. Max # of overlaps:      13     117
New grid distribution:   1
           1       1:  108    1:  108    1:  108

InitMesh: MESH =   216 x   216 x   216 =    10077696
InitMesh: (bp) =   108 x   108 x   108 =     1259712
InitMesh: Mesh cutoff (required, used) =   300.000   322.366 Ry
ExtMesh (bp) on 0 =   188 x   188 x   188 =     6644672
PhiOnMesh: Number of (b)points on node 0 =              1259712
PhiOnMesh: nlist on node 0 =              2631220

        iscf     Eharris(eV)        E_KS(eV)     FreeEng(eV)     dDmax    Ef(eV) dHmax(eV)
   scf:    1    -1515.469327    -1515.675788    -1515.675788  0.044847 -4.966627  0.612267
   scf:    2    -1515.393226    -1515.603696    -1515.603696  0.052552 -3.079204  1.231900
   scf:    3    -1515.726928    -1515.698032    -1515.698032  0.035468 -2.891273  0.025402
   scf:    4    -1515.698264    -1515.698159    -1515.698159  0.000759 -2.890935  0.017707
   scf:    5    -1515.698234    -1515.698201    -1515.698201  0.000576 -2.893250  0.008843
   scf:    6    -1515.698214    -1515.698208    -1515.698208  0.000248 -2.895321  0.004017
   scf:    7    -1515.698211    -1515.698209    -1515.698209  0.000188 -2.896879  0.001043
   scf:    8    -1515.698210    -1515.698209    -1515.698209  0.000035 -2.897031  0.000448

SCF Convergence by DM+H criterion
max |DM_out - DM_in|         :     0.0000353665
max |H_out - H_in|      (eV) :     0.0004482171
SCF cycle converged after 8 iterations

Using DM_out to compute the final energy and forces
No. of atoms with KB's overlaping orbs in proc 0. Max # of overlaps:      13     117

siesta: E_KS(eV) =            -1515.6982

siesta: Atomic forces (eV/Ang):
----------------------------------------
   Tot   -0.035583    0.012096   -0.000000
----------------------------------------
   Max    0.457236
   Res    0.168269    sqrt( Sum f_i^2 / 3N )
----------------------------------------
   Max    0.457236    constrained

Stress-tensor-Voigt (kbar):       -0.23        0.04        0.00       -0.03       -0.00        0.00
(Free)E + p*V (eV/cell)    -1515.3962
Target enthalpy (eV/cell)    -1515.6982

                     ====================================
                        Begin FIRE opt. move =      4
                     ====================================

outcoor: Atomic coordinates (Ang):                          
    2.18816525    1.10556889    0.00000000   1       1  C.gga
    3.41011347    1.80767209    0.00000000   1       2  C.gga
    3.42615870    3.21409009   -0.00000000   1       3  C.gga
    2.20762461    3.93536858    0.00000000   1       4  C.gga
    0.98253403    3.23008888    0.00000000   1       5  C.gga
    0.98323387    1.82091424    0.00000000   1       6  C.gga
    1.42463620    5.75681448    0.00000000   2       7  H.gga
    2.17818675    0.00485717   -0.00000000   2       8  H.gga
    4.36237757    1.24348772    0.00000000   2       9  H.gga
    4.39476355    3.75205161    0.00000000   2      10  H.gga
    0.03843049    3.79154512   -0.00000000   2      11  H.gga
    0.01922138    1.28697072   -0.00000000   2      12  H.gga
    2.30396563    5.31935805   -0.00000000   3      13  O.gga

outcell: Unit cell vectors (Ang):
       20.000000    0.000000    0.000000
        0.000000   20.000000    0.000000
        0.000000    0.000000   20.000000

outcell: Cell vector modules (Ang)   :   20.000000   20.000000   20.000000
outcell: Cell angles (23,13,12) (deg):     90.0000     90.0000     90.0000
outcell: Cell volume (Ang**3)        :   8000.0000
<dSpData1D:S at geom step 4
  <sparsity:sparsity for geom step 4
    nrows_g=121 nrows=121 sparsity=.9980 nnzs=14611, refcount: 7>
  <dData1D:(new from dSpData1D) n=14611, refcount: 1>
refcount: 1>
new_DM -- step:     5
Re-using DM from previous geometries...
Number of DMs in history: 1
 DM extrapolation coefficients: 
1   1.00000
New DM after history re-use:
<dSpData2D:SpM extrapolated using coords
  <sparsity:sparsity for geom step 4
    nrows_g=121 nrows=121 sparsity=.9980 nnzs=14611, refcount: 8>
  <dData2D:(temp array for extrapolation) n=14611 m=1, refcount: 1>
refcount: 1>
No. of atoms with KB's overlaping orbs in proc 0. Max # of overlaps:      13     117
New grid distribution:   1
           1       1:  108    1:  108    1:  108

InitMesh: MESH =   216 x   216 x   216 =    10077696
InitMesh: (bp) =   108 x   108 x   108 =     1259712
InitMesh: Mesh cutoff (required, used) =   300.000   322.366 Ry
ExtMesh (bp) on 0 =   188 x   188 x   188 =     6644672
PhiOnMesh: Number of (b)points on node 0 =              1259712
PhiOnMesh: nlist on node 0 =              2631159

        iscf     Eharris(eV)        E_KS(eV)     FreeEng(eV)     dDmax    Ef(eV) dHmax(eV)
   scf:    1    -1515.693375    -1515.700719    -1515.700719  0.001925 -2.897953  0.058271
   scf:    2    -1515.699083    -1515.700271    -1515.700271  0.004392 -2.937320  0.133521
   scf:    3    -1515.700949    -1515.700803    -1515.700803  0.003062 -2.909976  0.002627
   scf:    4    -1515.700803    -1515.700803    -1515.700803  0.000058 -2.910523  0.001558
   scf:    5    -1515.700803    -1515.700803    -1515.700803  0.000098 -2.911197  0.000227

SCF Convergence by DM+H criterion
max |DM_out - DM_in|         :     0.0000976530
max |H_out - H_in|      (eV) :     0.0002273253
SCF cycle converged after 5 iterations

Using DM_out to compute the final energy and forces
No. of atoms with KB's overlaping orbs in proc 0. Max # of overlaps:      13     117

siesta: E_KS(eV) =            -1515.7008

siesta: Atomic forces (eV/Ang):
----------------------------------------
   Tot   -0.035270    0.011555   -0.000000
----------------------------------------
   Max    0.434202
   Res    0.140722    sqrt( Sum f_i^2 / 3N )
----------------------------------------
   Max    0.434202    constrained

Stress-tensor-Voigt (kbar):       -0.21        0.04        0.00       -0.05        0.00        0.00
(Free)E + p*V (eV/cell)    -1515.4203
Target enthalpy (eV/cell)    -1515.7008

                     ====================================
                        Begin FIRE opt. move =      5
                     ====================================

outcoor: Atomic coordinates (Ang):                          
    2.18886264    1.10520916    0.00000000   1       1  C.gga
    3.40985205    1.80768642    0.00000000   1       2  C.gga
    3.42711294    3.21405437    0.00000000   1       3  C.gga
    2.20744877    3.93640940    0.00000000   1       4  C.gga
    0.98355697    3.23019912    0.00000000   1       5  C.gga
    0.98251169    1.82181204    0.00000000   1       6  C.gga
    1.42504129    5.75534294    0.00000000   2       7  H.gga
    2.17820474    0.00413842   -0.00000000   2       8  H.gga
    4.36259903    1.24363953    0.00000000   2       9  H.gga
    4.39437842    3.75240535    0.00000000   2      10  H.gga
    0.03719608    3.79211462   -0.00000000   2      11  H.gga
    0.01864383    1.28659030   -0.00000000   2      12  H.gga
    2.30388714    5.31922500   -0.00000000   3      13  O.gga

outcell: Unit cell vectors (Ang):
       20.000000    0.000000    0.000000
        0.000000   20.000000    0.000000
        0.000000    0.000000   20.000000

outcell: Cell vector modules (Ang)   :   20.000000   20.000000   20.000000
outcell: Cell angles (23,13,12) (deg):     90.0000     90.0000     90.0000
outcell: Cell volume (Ang**3)        :   8000.0000
<dSpData1D:S at geom step 5
  <sparsity:sparsity for geom step 5
    nrows_g=121 nrows=121 sparsity=.9980 nnzs=14611, refcount: 7>
  <dData1D:(new from dSpData1D) n=14611, refcount: 1>
refcount: 1>
new_DM -- step:     6
Re-using DM from previous geometries...
Number of DMs in history: 1
 DM extrapolation coefficients: 
1   1.00000
New DM after history re-use:
<dSpData2D:SpM extrapolated using coords
  <sparsity:sparsity for geom step 5
    nrows_g=121 nrows=121 sparsity=.9980 nnzs=14611, refcount: 8>
  <dData2D:(temp array for extrapolation) n=14611 m=1, refcount: 1>
refcount: 1>
No. of atoms with KB's overlaping orbs in proc 0. Max # of overlaps:      13     117
New grid distribution:   1
           1       1:  108    1:  108    1:  108

InitMesh: MESH =   216 x   216 x   216 =    10077696
InitMesh: (bp) =   108 x   108 x   108 =     1259712
InitMesh: Mesh cutoff (required, used) =   300.000   322.366 Ry
ExtMesh (bp) on 0 =   188 x   188 x   188 =     6644672
PhiOnMesh: Number of (b)points on node 0 =              1259712
PhiOnMesh: nlist on node 0 =              2631231

        iscf     Eharris(eV)        E_KS(eV)     FreeEng(eV)     dDmax    Ef(eV) dHmax(eV)
   scf:    1    -1515.694347    -1515.703186    -1515.703186  0.002364 -2.912409  0.071765
   scf:    2    -1515.700688    -1515.702502    -1515.702502  0.005393 -2.960830  0.164425
   scf:    3    -1515.703538    -1515.703314    -1515.703314  0.003761 -2.927177  0.003211
   scf:    4    -1515.703315    -1515.703314    -1515.703314  0.000070 -2.927839  0.001889
   scf:    5    -1515.703315    -1515.703315    -1515.703315  0.000118 -2.928646  0.000272
   scf:    6    -1515.703315    -1515.703315    -1515.703315  0.000027 -2.928725  0.000129

SCF Convergence by DM+H criterion
max |DM_out - DM_in|         :     0.0000265066
max |H_out - H_in|      (eV) :     0.0001287423
SCF cycle converged after 6 iterations

Using DM_out to compute the final energy and forces
No. of atoms with KB's overlaping orbs in proc 0. Max # of overlaps:      13     117

siesta: E_KS(eV) =            -1515.7033

siesta: Atomic forces (eV/Ang):
----------------------------------------
   Tot   -0.034741    0.011560   -0.000000
----------------------------------------
   Max    0.405720
   Res    0.114325    sqrt( Sum f_i^2 / 3N )
----------------------------------------
   Max    0.405720    constrained

Stress-tensor-Voigt (kbar):       -0.20        0.04        0.00       -0.07       -0.00       -0.00
(Free)E + p*V (eV/cell)    -1515.4496
Target enthalpy (eV/cell)    -1515.7033

                     ====================================
                        Begin FIRE opt. move =      6
                     ====================================

outcoor: Atomic coordinates (Ang):                          
    2.18966575    1.10474584    0.00000000   1       1  C.gga
    3.40957483    1.80770393   -0.00000000   1       2  C.gga
    3.42827902    3.21405532    0.00000000   1       3  C.gga
    2.20738757    3.93775489    0.00000000   1       4  C.gga
    0.98478430    3.23048878    0.00000000   1       5  C.gga
    0.98162866    1.82291874    0.00000000   1       6  C.gga
    1.42553844    5.75328897    0.00000000   2       7  H.gga
    2.17823594    0.00313428   -0.00000000   2       8  H.gga
    4.36289662    1.24386547    0.00000000   2       9  H.gga
    4.39389420    3.75293453    0.00000000   2      10  H.gga
    0.03556389    3.79286057   -0.00000000   2      11  H.gga
    0.01783956    1.28607830   -0.00000000   2      12  H.gga
    2.30384111    5.31905244   -0.00000000   3      13  O.gga

outcell: Unit cell vectors (Ang):
       20.000000    0.000000    0.000000
        0.000000   20.000000    0.000000
        0.000000    0.000000   20.000000

outcell: Cell vector modules (Ang)   :   20.000000   20.000000   20.000000
outcell: Cell angles (23,13,12) (deg):     90.0000     90.0000     90.0000
outcell: Cell volume (Ang**3)        :   8000.0000
<dSpData1D:S at geom step 6
  <sparsity:sparsity for geom step 6
    nrows_g=121 nrows=121 sparsity=.9980 nnzs=14611, refcount: 7>
  <dData1D:(new from dSpData1D) n=14611, refcount: 1>
refcount: 1>
new_DM -- step:     7
Re-using DM from previous geometries...
Number of DMs in history: 1
 DM extrapolation coefficients: 
1   1.00000
New DM after history re-use:
<dSpData2D:SpM extrapolated using coords
  <sparsity:sparsity for geom step 6
    nrows_g=121 nrows=121 sparsity=.9980 nnzs=14611, refcount: 8>
  <dData2D:(temp array for extrapolation) n=14611 m=1, refcount: 1>
refcount: 1>
No. of atoms with KB's overlaping orbs in proc 0. Max # of overlaps:      13     117
New grid distribution:   1
           1       1:  108    1:  108    1:  108

InitMesh: MESH =   216 x   216 x   216 =    10077696
InitMesh: (bp) =   108 x   108 x   108 =     1259712
InitMesh: Mesh cutoff (required, used) =   300.000   322.366 Ry
ExtMesh (bp) on 0 =   188 x   188 x   188 =     6644672
PhiOnMesh: Number of (b)points on node 0 =              1259712
PhiOnMesh: nlist on node 0 =              2631254

        iscf     Eharris(eV)        E_KS(eV)     FreeEng(eV)     dDmax    Ef(eV) dHmax(eV)
   scf:    1    -1515.694470    -1515.705498    -1515.705498  0.003106 -2.930193  0.094545
   scf:    2    -1515.700950    -1515.704249    -1515.704249  0.007141 -2.994249  0.217438
   scf:    3    -1515.706133    -1515.705727    -1515.705727  0.004983 -2.949681  0.004267
   scf:    4    -1515.705728    -1515.705727    -1515.705727  0.000092 -2.950552  0.002529
   scf:    5    -1515.705728    -1515.705728    -1515.705728  0.000155 -2.951623  0.000343
   scf:    6    -1515.705728    -1515.705728    -1515.705728  0.000034 -2.951730  0.000173

SCF Convergence by DM+H criterion
max |DM_out - DM_in|         :     0.0000344275
max |H_out - H_in|      (eV) :     0.0001725006
SCF cycle converged after 6 iterations

Using DM_out to compute the final energy and forces
No. of atoms with KB's overlaping orbs in proc 0. Max # of overlaps:      13     117

siesta: E_KS(eV) =            -1515.7057

siesta: Atomic forces (eV/Ang):
----------------------------------------
   Tot   -0.034628    0.012015    0.000000
----------------------------------------
   Max    0.369010
   Res    0.096238    sqrt( Sum f_i^2 / 3N )
----------------------------------------
   Max    0.369010    constrained

Stress-tensor-Voigt (kbar):       -0.17        0.04        0.00       -0.09        0.00        0.00
(Free)E + p*V (eV/cell)    -1515.4885
Target enthalpy (eV/cell)    -1515.7057

                     ====================================
                        Begin FIRE opt. move =      7
                     ====================================

outcoor: Atomic coordinates (Ang):                          
    2.19038324    1.10422466    0.00000000   1       1  C.gga
    3.40937499    1.80772294   -0.00000000   1       2  C.gga
    3.42946640    3.21414273    0.00000000   1       3  C.gga
    2.20763037    3.93926371    0.00000000   1       4  C.gga
    0.98598614    3.23109536    0.00000000   1       5  C.gga
    0.98072549    1.82406647    0.00000000   1       6  C.gga
    1.42604065    5.75068054    0.00000000   2       7  H.gga
    2.17828631    0.00186129   -0.00000000   2       8  H.gga
    4.36325560    1.24417744    0.00000000   2       9  H.gga
    4.39337672    3.75367219    0.00000000   2      10  H.gga
    0.03365523    3.79372118   -0.00000000   2      11  H.gga
    0.01682542    1.28546557   -0.00000000   2      12  H.gga
    2.30390482    5.31886162   -0.00000000   3      13  O.gga

outcell: Unit cell vectors (Ang):
       20.000000    0.000000    0.000000
        0.000000   20.000000    0.000000
        0.000000    0.000000   20.000000

outcell: Cell vector modules (Ang)   :   20.000000   20.000000   20.000000
outcell: Cell angles (23,13,12) (deg):     90.0000     90.0000     90.0000
outcell: Cell volume (Ang**3)        :   8000.0000
<dSpData1D:S at geom step 7
  <sparsity:sparsity for geom step 7
    nrows_g=121 nrows=121 sparsity=.9980 nnzs=14611, refcount: 7>
  <dData1D:(new from dSpData1D) n=14611, refcount: 1>
refcount: 1>
new_DM -- step:     8
Re-using DM from previous geometries...
Number of DMs in history: 1
 DM extrapolation coefficients: 
1   1.00000
New DM after history re-use:
<dSpData2D:SpM extrapolated using coords
  <sparsity:sparsity for geom step 7
    nrows_g=121 nrows=121 sparsity=.9980 nnzs=14611, refcount: 8>
  <dData2D:(temp array for extrapolation) n=14611 m=1, refcount: 1>
refcount: 1>
No. of atoms with KB's overlaping orbs in proc 0. Max # of overlaps:      13     117
New grid distribution:   1
           1       1:  108    1:  108    1:  108

InitMesh: MESH =   216 x   216 x   216 =    10077696
InitMesh: (bp) =   108 x   108 x   108 =     1259712
InitMesh: Mesh cutoff (required, used) =   300.000   322.366 Ry
ExtMesh (bp) on 0 =   188 x   188 x   188 =     6644672
PhiOnMesh: Number of (b)points on node 0 =              1259712
PhiOnMesh: nlist on node 0 =              2631212

        iscf     Eharris(eV)        E_KS(eV)     FreeEng(eV)     dDmax    Ef(eV) dHmax(eV)
   scf:    1    -1515.696257    -1515.707360    -1515.707360  0.003482 -2.953196  0.109791
   scf:    2    -1515.700768    -1515.705545    -1515.705545  0.008345 -3.027967  0.254141
   scf:    3    -1515.708270    -1515.707684    -1515.707684  0.005832 -2.975845  0.004935
   scf:    4    -1515.707686    -1515.707685    -1515.707685  0.000105 -2.976847  0.002954
   scf:    5    -1515.707686    -1515.707686    -1515.707686  0.000174 -2.978082  0.000417
   scf:    6    -1515.707686    -1515.707686    -1515.707686  0.000039 -2.978213  0.000205

SCF Convergence by DM+H criterion
max |DM_out - DM_in|         :     0.0000391992
max |H_out - H_in|      (eV) :     0.0002050377
SCF cycle converged after 6 iterations

Using DM_out to compute the final energy and forces
No. of atoms with KB's overlaping orbs in proc 0. Max # of overlaps:      13     117

siesta: E_KS(eV) =            -1515.7077

siesta: Atomic forces (eV/Ang):
----------------------------------------
   Tot   -0.034126    0.014222   -0.000000
----------------------------------------
   Max    0.327227
   Res    0.097270    sqrt( Sum f_i^2 / 3N )
----------------------------------------
   Max    0.327227    constrained

Stress-tensor-Voigt (kbar):       -0.15        0.04        0.00       -0.11       -0.00        0.00
(Free)E + p*V (eV/cell)    -1515.5384
Target enthalpy (eV/cell)    -1515.7077

                     ====================================
                        Begin FIRE opt. move =      8
                     ====================================

outcoor: Atomic coordinates (Ang):                          
    2.19081943    1.10370064    0.00000000   1       1  C.gga
    3.40933683    1.80774409   -0.00000000   1       2  C.gga
    3.43046520    3.21435193    0.00000000   1       3  C.gga
    2.20832687    3.94074272    0.00000000   1       4  C.gga
    0.98690970    3.23211913    0.00000000   1       5  C.gga
    0.97995371    1.82506818   -0.00000000   1       6  C.gga
    1.42643692    5.74762694    0.00000000   2       7  H.gga
    2.17835945    0.00038445   -0.00000000   2       8  H.gga
    4.36365385    1.24457664    0.00000000   2       9  H.gga
    4.39290740    3.75462947    0.00000000   2      10  H.gga
    0.03165041    3.79461165   -0.00000000   2      11  H.gga
    0.01565803    1.28480806   -0.00000000   2      12  H.gga
    2.30416552    5.31868644   -0.00000000   3      13  O.gga

outcell: Unit cell vectors (Ang):
       20.000000    0.000000    0.000000
        0.000000   20.000000    0.000000
        0.000000    0.000000   20.000000

outcell: Cell vector modules (Ang)   :   20.000000   20.000000   20.000000
outcell: Cell angles (23,13,12) (deg):     90.0000     90.0000     90.0000
outcell: Cell volume (Ang**3)        :   8000.0000
<dSpData1D:S at geom step 8
  <sparsity:sparsity for geom step 8
    nrows_g=121 nrows=121 sparsity=.9980 nnzs=14611, refcount: 7>
  <dData1D:(new from dSpData1D) n=14611, refcount: 1>
refcount: 1>
new_DM -- step:     9
Re-using DM from previous geometries...
Number of DMs in history: 1
 DM extrapolation coefficients: 
1   1.00000
New DM after history re-use:
<dSpData2D:SpM extrapolated using coords
  <sparsity:sparsity for geom step 8
    nrows_g=121 nrows=121 sparsity=.9980 nnzs=14611, refcount: 8>
  <dData2D:(temp array for extrapolation) n=14611 m=1, refcount: 1>
refcount: 1>
No. of atoms with KB's overlaping orbs in proc 0. Max # of overlaps:      13     117
New grid distribution:   1
           1       1:  108    1:  108    1:  108

InitMesh: MESH =   216 x   216 x   216 =    10077696
InitMesh: (bp) =   108 x   108 x   108 =     1259712
InitMesh: Mesh cutoff (required, used) =   300.000   322.366 Ry
ExtMesh (bp) on 0 =   188 x   188 x   188 =     6644672
PhiOnMesh: Number of (b)points on node 0 =              1259712
PhiOnMesh: nlist on node 0 =              2631154

        iscf     Eharris(eV)        E_KS(eV)     FreeEng(eV)     dDmax    Ef(eV) dHmax(eV)
   scf:    1    -1515.700708    -1515.708962    -1515.708962  0.003377 -2.979262  0.113065
   scf:    2    -1515.701209    -1515.706821    -1515.706821  0.008665 -3.056842  0.264216
   scf:    3    -1515.710020    -1515.709334    -1515.709334  0.006070 -3.002624  0.005016
   scf:    4    -1515.709336    -1515.709335    -1515.709335  0.000103 -3.003643  0.003044
   scf:    5    -1515.709336    -1515.709335    -1515.709335  0.000170 -3.004902  0.000489
   scf:    6    -1515.709335    -1515.709335    -1515.709335  0.000039 -3.005047  0.000218

SCF Convergence by DM+H criterion
max |DM_out - DM_in|         :     0.0000391703
max |H_out - H_in|      (eV) :     0.0002176054
SCF cycle converged after 6 iterations

Using DM_out to compute the final energy and forces
No. of atoms with KB's overlaping orbs in proc 0. Max # of overlaps:      13     117

siesta: E_KS(eV) =            -1515.7093

siesta: Atomic forces (eV/Ang):
----------------------------------------
   Tot   -0.033475    0.014147    0.000000
----------------------------------------
   Max    0.285742
   Res    0.106985    sqrt( Sum f_i^2 / 3N )
----------------------------------------
   Max    0.285742    constrained

Stress-tensor-Voigt (kbar):       -0.12        0.05        0.00       -0.11        0.00        0.00
(Free)E + p*V (eV/cell)    -1515.5988
Target enthalpy (eV/cell)    -1515.7093

                     ====================================
                        Begin FIRE opt. move =      9
                     ====================================

outcoor: Atomic coordinates (Ang):                          
    2.19085896    1.10321413    0.00000000   1       1  C.gga
    3.40949394    1.80777070   -0.00000000   1       2  C.gga
    3.43113889    3.21468372    0.00000000   1       3  C.gga
    2.20951390    3.94201499    0.00000000   1       4  C.gga
    0.98738468    3.23357412    0.00000000   1       5  C.gga
    0.97940661    1.82580293   -0.00000000   1       6  C.gga
    1.42663167    5.74427012    0.00000000   2       7  H.gga
    2.17845486   -0.00120448   -0.00000000   2       8  H.gga
    4.36407316    1.24505345    0.00000000   2       9  H.gga
    4.39255015    3.75579359    0.00000000   2      10  H.gga
    0.02971741    3.79545943   -0.00000000   2      11  H.gga
    0.01441533    1.28416807   -0.00000000   2      12  H.gga
    2.30469365    5.31856376   -0.00000000   3      13  O.gga

outcell: Unit cell vectors (Ang):
       20.000000    0.000000    0.000000
        0.000000   20.000000    0.000000
        0.000000    0.000000   20.000000

outcell: Cell vector modules (Ang)   :   20.000000   20.000000   20.000000
outcell: Cell angles (23,13,12) (deg):     90.0000     90.0000     90.0000
outcell: Cell volume (Ang**3)        :   8000.0000
<dSpData1D:S at geom step 9
  <sparsity:sparsity for geom step 9
    nrows_g=121 nrows=121 sparsity=.9980 nnzs=14611, refcount: 7>
  <dData1D:(new from dSpData1D) n=14611, refcount: 1>
refcount: 1>
new_DM -- step:    10
Re-using DM from previous geometries...
Number of DMs in history: 1
 DM extrapolation coefficients: 
1   1.00000
New DM after history re-use:
<dSpData2D:SpM extrapolated using coords
  <sparsity:sparsity for geom step 9
    nrows_g=121 nrows=121 sparsity=.9980 nnzs=14611, refcount: 8>
  <dData2D:(temp array for extrapolation) n=14611 m=1, refcount: 1>
refcount: 1>
No. of atoms with KB's overlaping orbs in proc 0. Max # of overlaps:      13     117
New grid distribution:   1
           1       1:  108    1:  108    1:  108

InitMesh: MESH =   216 x   216 x   216 =    10077696
InitMesh: (bp) =   108 x   108 x   108 =     1259712
InitMesh: Mesh cutoff (required, used) =   300.000   322.366 Ry
ExtMesh (bp) on 0 =   188 x   188 x   188 =     6644672
PhiOnMesh: Number of (b)points on node 0 =              1259712
PhiOnMesh: nlist on node 0 =              2631330

        iscf     Eharris(eV)        E_KS(eV)     FreeEng(eV)     dDmax    Ef(eV) dHmax(eV)
   scf:    1    -1515.707962    -1515.710701    -1515.710701  0.003295 -3.005270  0.104495
   scf:    2    -1515.703077    -1515.708590    -1515.708590  0.008082 -3.077711  0.247439
   scf:    3    -1515.711729    -1515.711059    -1515.711059  0.005682 -3.026919  0.004476
   scf:    4    -1515.711060    -1515.711060    -1515.711060  0.000090 -3.027843  0.002770
   scf:    5    -1515.711061    -1515.711060    -1515.711060  0.000147 -3.028992  0.000516
   scf:    6    -1515.711060    -1515.711060    -1515.711060  0.000034 -3.029133  0.000207

SCF Convergence by DM+H criterion
max |DM_out - DM_in|         :     0.0000339817
max |H_out - H_in|      (eV) :     0.0002073567
SCF cycle converged after 6 iterations

Using DM_out to compute the final energy and forces
No. of atoms with KB's overlaping orbs in proc 0. Max # of overlaps:      13     117

siesta: E_KS(eV) =            -1515.7111

siesta: Atomic forces (eV/Ang):
----------------------------------------
   Tot   -0.033222    0.014267   -0.000000
----------------------------------------
   Max    0.261431
   Res    0.109576    sqrt( Sum f_i^2 / 3N )
----------------------------------------
   Max    0.261431    constrained

Stress-tensor-Voigt (kbar):       -0.10        0.07        0.00       -0.11       -0.00        0.00
(Free)E + p*V (eV/cell)    -1515.6691
Target enthalpy (eV/cell)    -1515.7111

                     ====================================
                        Begin FIRE opt. move =     10
                     ====================================

outcoor: Atomic coordinates (Ang):                          
    2.19047255    1.10278235    0.00000000   1       1  C.gga
    3.40982909    1.80780744   -0.00000000   1       2  C.gga
    3.43144353    3.21511170    0.00000000   1       3  C.gga
    2.21113118    3.94295330    0.00000000   1       4  C.gga
    0.98734075    3.23541152    0.00000000   1       5  C.gga
    0.97910625    1.82623465   -0.00000000   1       6  C.gga
    1.42655505    5.74071644    0.00000000   2       7  H.gga
    2.17856935   -0.00281880   -0.00000000   2       8  H.gga
    4.36450755    1.24559669    0.00000000   2       9  H.gga
    4.39234087    3.75714860    0.00000000   2      10  H.gga
    0.02797145    3.79622248   -0.00000000   2      11  H.gga
    0.01317147    1.28360097   -0.00000000   2      12  H.gga
    2.30554671    5.31852912   -0.00000000   3      13  O.gga

outcell: Unit cell vectors (Ang):
       20.000000    0.000000    0.000000
        0.000000   20.000000    0.000000
        0.000000    0.000000   20.000000

outcell: Cell vector modules (Ang)   :   20.000000   20.000000   20.000000
outcell: Cell angles (23,13,12) (deg):     90.0000     90.0000     90.0000
outcell: Cell volume (Ang**3)        :   8000.0000
<dSpData1D:S at geom step 10
  <sparsity:sparsity for geom step 10
    nrows_g=121 nrows=121 sparsity=.9980 nnzs=14611, refcount: 7>
  <dData1D:(new from dSpData1D) n=14611, refcount: 1>
refcount: 1>
new_DM -- step:    11
Re-using DM from previous geometries...
Number of DMs in history: 1
 DM extrapolation coefficients: 
1   1.00000
New DM after history re-use:
<dSpData2D:SpM extrapolated using coords
  <sparsity:sparsity for geom step 10
    nrows_g=121 nrows=121 sparsity=.9980 nnzs=14611, refcount: 8>
  <dData2D:(temp array for extrapolation) n=14611 m=1, refcount: 1>
refcount: 1>
No. of atoms with KB's overlaping orbs in proc 0. Max # of overlaps:      13     117
New grid distribution:   1
           1       1:  108    1:  108    1:  108

InitMesh: MESH =   216 x   216 x   216 =    10077696
InitMesh: (bp) =   108 x   108 x   108 =     1259712
InitMesh: Mesh cutoff (required, used) =   300.000   322.366 Ry
ExtMesh (bp) on 0 =   188 x   188 x   188 =     6644672
PhiOnMesh: Number of (b)points on node 0 =              1259712
PhiOnMesh: nlist on node 0 =              2631199

        iscf     Eharris(eV)        E_KS(eV)     FreeEng(eV)     dDmax    Ef(eV) dHmax(eV)
   scf:    1    -1515.717508    -1515.712745    -1515.712745  0.003315 -3.028227  0.086882
   scf:    2    -1515.706313    -1515.710959    -1515.710959  0.006781 -3.089335  0.209692
   scf:    3    -1515.713602    -1515.713040    -1515.713040  0.004793 -3.046299  0.003441
   scf:    4    -1515.713041    -1515.713041    -1515.713041  0.000066 -3.047039  0.002174
   scf:    5    -1515.713042    -1515.713041    -1515.713041  0.000109 -3.047986  0.000476
   scf:    6    -1515.713041    -1515.713041    -1515.713041  0.000024 -3.048096  0.000204

SCF Convergence by DM+H criterion
max |DM_out - DM_in|         :     0.0000240444
max |H_out - H_in|      (eV) :     0.0002044169
SCF cycle converged after 6 iterations

Using DM_out to compute the final energy and forces
No. of atoms with KB's overlaping orbs in proc 0. Max # of overlaps:      13     117

siesta: E_KS(eV) =            -1515.7130

siesta: Atomic forces (eV/Ang):
----------------------------------------
   Tot   -0.031526    0.014197    0.000000
----------------------------------------
   Max    0.232395
   Res    0.099390    sqrt( Sum f_i^2 / 3N )
----------------------------------------
   Max    0.232395    constrained

Stress-tensor-Voigt (kbar):       -0.08        0.09        0.00       -0.09       -0.00        0.00
(Free)E + p*V (eV/cell)    -1515.7496
Target enthalpy (eV/cell)    -1515.7130

                     ====================================
                        Begin FIRE opt. move =     11
                     ====================================

outcoor: Atomic coordinates (Ang):                          
    2.18970347    1.10240289   -0.00000000   1       1  C.gga
    3.41027994    1.80785894   -0.00000000   1       2  C.gga
    3.43142034    3.21558630    0.00000000   1       3  C.gga
    2.21303631    3.94347428   -0.00000000   1       4  C.gga
    0.98679096    3.23753227    0.00000000   1       5  C.gga
    0.97901169    1.82640416   -0.00000000   1       6  C.gga
    1.42615848    5.73702157    0.00000000   2       7  H.gga
    2.17869745   -0.00437891   -0.00000000   2       8  H.gga
    4.36496381    1.24619726    0.00000000   2       9  H.gga
    4.39229001    3.75868315    0.00000000   2      10  H.gga
    0.02647941    3.79688767   -0.00000000   2      11  H.gga
    0.01199569    1.28315806   -0.00000000   2      12  H.gga
    2.30677609    5.31861849   -0.00000000   3      13  O.gga

outcell: Unit cell vectors (Ang):
       20.000000    0.000000    0.000000
        0.000000   20.000000    0.000000
        0.000000    0.000000   20.000000

outcell: Cell vector modules (Ang)   :   20.000000   20.000000   20.000000
outcell: Cell angles (23,13,12) (deg):     90.0000     90.0000     90.0000
outcell: Cell volume (Ang**3)        :   8000.0000
<dSpData1D:S at geom step 11
  <sparsity:sparsity for geom step 11
    nrows_g=121 nrows=121 sparsity=.9980 nnzs=14611, refcount: 7>
  <dData1D:(new from dSpData1D) n=14611, refcount: 1>
refcount: 1>
new_DM -- step:    12
Re-using DM from previous geometries...
Number of DMs in history: 1
 DM extrapolation coefficients: 
1   1.00000
New DM after history re-use:
<dSpData2D:SpM extrapolated using coords
  <sparsity:sparsity for geom step 11
    nrows_g=121 nrows=121 sparsity=.9980 nnzs=14611, refcount: 8>
  <dData2D:(temp array for extrapolation) n=14611 m=1, refcount: 1>
refcount: 1>
No. of atoms with KB's overlaping orbs in proc 0. Max # of overlaps:      13     117
New grid distribution:   1
           1       1:  108    1:  108    1:  108

InitMesh: MESH =   216 x   216 x   216 =    10077696
InitMesh: (bp) =   108 x   108 x   108 =     1259712
InitMesh: Mesh cutoff (required, used) =   300.000   322.366 Ry
ExtMesh (bp) on 0 =   188 x   188 x   188 =     6644672
PhiOnMesh: Number of (b)points on node 0 =              1259712
PhiOnMesh: nlist on node 0 =              2631229

        iscf     Eharris(eV)        E_KS(eV)     FreeEng(eV)     dDmax    Ef(eV) dHmax(eV)
   scf:    1    -1515.728478    -1515.714868    -1515.714868  0.003292 -3.045870  0.064103
   scf:    2    -1515.710275    -1515.713591    -1515.713591  0.004933 -3.091097  0.156440
   scf:    3    -1515.715475    -1515.715077    -1515.715077  0.003519 -3.059030  0.002729
   scf:    4    -1515.715078    -1515.715078    -1515.715078  0.000036 -3.059523  0.001749
   scf:    5    -1515.715078    -1515.715078    -1515.715078  0.000061 -3.060194  0.000390

SCF Convergence by DM+H criterion
max |DM_out - DM_in|         :     0.0000612820
max |H_out - H_in|      (eV) :     0.0003895553
SCF cycle converged after 5 iterations

Using DM_out to compute the final energy and forces
No. of atoms with KB's overlaping orbs in proc 0. Max # of overlaps:      13     117

siesta: E_KS(eV) =            -1515.7151

siesta: Atomic forces (eV/Ang):
----------------------------------------
   Tot   -0.031483    0.014767   -0.000000
----------------------------------------
   Max    0.221465
   Res    0.080089    sqrt( Sum f_i^2 / 3N )
----------------------------------------
   Max    0.221465    constrained

Stress-tensor-Voigt (kbar):       -0.06        0.12        0.00       -0.07        0.00       -0.00
(Free)E + p*V (eV/cell)    -1515.8374
Target enthalpy (eV/cell)    -1515.7151

                     ====================================
                        Begin FIRE opt. move =     12
                     ====================================

outcoor: Atomic coordinates (Ang):                          
    2.18855452    1.10202353   -0.00000000   1       1  C.gga
    3.41078053    1.80793363   -0.00000000   1       2  C.gga
    3.43117416    3.21607332    0.00000000   1       3  C.gga
    2.21519507    3.94353467   -0.00000000   1       4  C.gga
    0.98572309    3.24000872    0.00000000   1       5  C.gga
    0.97902077    1.82643137   -0.00000000   1       6  C.gga
    1.42533121    5.73278944    0.00000000   2       7  H.gga
    2.17884399   -0.00594729   -0.00000000   2       8  H.gga
    4.36551320    1.24691750   -0.00000000   2       9  H.gga
    4.39239480    3.76057103    0.00000000   2      10  H.gga
    0.02514768    3.79752903   -0.00000000   2      11  H.gga
    0.01085498    1.28286966   -0.00000000   2      12  H.gga
    2.30860402    5.31890020   -0.00000000   3      13  O.gga

outcell: Unit cell vectors (Ang):
       20.000000    0.000000    0.000000
        0.000000   20.000000    0.000000
        0.000000    0.000000   20.000000

outcell: Cell vector modules (Ang)   :   20.000000   20.000000   20.000000
outcell: Cell angles (23,13,12) (deg):     90.0000     90.0000     90.0000
outcell: Cell volume (Ang**3)        :   8000.0000
<dSpData1D:S at geom step 12
  <sparsity:sparsity for geom step 12
    nrows_g=121 nrows=121 sparsity=.9980 nnzs=14611, refcount: 7>
  <dData1D:(new from dSpData1D) n=14611, refcount: 1>
refcount: 1>
new_DM -- step:    13
Re-using DM from previous geometries...
Number of DMs in history: 1
 DM extrapolation coefficients: 
1   1.00000
New DM after history re-use:
<dSpData2D:SpM extrapolated using coords
  <sparsity:sparsity for geom step 12
    nrows_g=121 nrows=121 sparsity=.9980 nnzs=14611, refcount: 8>
  <dData2D:(temp array for extrapolation) n=14611 m=1, refcount: 1>
refcount: 1>
No. of atoms with KB's overlaping orbs in proc 0. Max # of overlaps:      13     117
New grid distribution:   1
           1       1:  108    1:  108    1:  108

InitMesh: MESH =   216 x   216 x   216 =    10077696
InitMesh: (bp) =   108 x   108 x   108 =     1259712
InitMesh: Mesh cutoff (required, used) =   300.000   322.366 Ry
ExtMesh (bp) on 0 =   188 x   188 x   188 =     6644672
PhiOnMesh: Number of (b)points on node 0 =              1259712
PhiOnMesh: nlist on node 0 =              2631266

        iscf     Eharris(eV)        E_KS(eV)     FreeEng(eV)     dDmax    Ef(eV) dHmax(eV)
   scf:    1    -1515.742414    -1515.716752    -1515.716752  0.003719 -3.056367  0.043301
   scf:    2    -1515.713672    -1515.715897    -1515.715897  0.002912 -3.084896  0.111371
   scf:    3    -1515.717160    -1515.716895    -1515.716895  0.002125 -3.064385  0.004554
   scf:    4    -1515.716896    -1515.716896    -1515.716896  0.000046 -3.064603  0.002967
   scf:    5    -1515.716896    -1515.716896    -1515.716896  0.000078 -3.064926  0.000373

SCF Convergence by DM+H criterion
max |DM_out - DM_in|         :     0.0000779810
max |H_out - H_in|      (eV) :     0.0003725158
SCF cycle converged after 5 iterations

Using DM_out to compute the final energy and forces
No. of atoms with KB's overlaping orbs in proc 0. Max # of overlaps:      13     117

siesta: E_KS(eV) =            -1515.7169

siesta: Atomic forces (eV/Ang):
----------------------------------------
   Tot   -0.027017    0.013505    0.000000
----------------------------------------
   Max    0.194929
   Res    0.065817    sqrt( Sum f_i^2 / 3N )
----------------------------------------
   Max    0.194929    constrained

Stress-tensor-Voigt (kbar):       -0.03        0.16        0.00       -0.03       -0.00        0.00
(Free)E + p*V (eV/cell)    -1515.9401
Target enthalpy (eV/cell)    -1515.7169

                     ====================================
                        Begin FIRE opt. move =     13
                     ====================================

outcoor: Atomic coordinates (Ang):                          
    2.18722300    1.10161548   -0.00000000   1       1  C.gga
    3.41112196    1.80802212   -0.00000000   1       2  C.gga
    3.43097487    3.21642117    0.00000000   1       3  C.gga
    2.21717931    3.94307606   -0.00000000   1       4  C.gga
    0.98430920    3.24255659    0.00000000   1       5  C.gga
    0.97892682    1.82655858    0.00000000   1       6  C.gga
    1.42402348    5.72789538    0.00000000   2       7  H.gga
    2.17899190   -0.00738769   -0.00000000   2       8  H.gga
    4.36620275    1.24776940   -0.00000000   2       9  H.gga
    4.39261997    3.76284828   -0.00000000   2      10  H.gga
    0.02399904    3.79819942   -0.00000000   2      11  H.gga
    0.00986892    1.28284836   -0.00000000   2      12  H.gga
    2.31113478    5.31944812   -0.00000000   3      13  O.gga

outcell: Unit cell vectors (Ang):
       20.000000    0.000000    0.000000
        0.000000   20.000000    0.000000
        0.000000    0.000000   20.000000

outcell: Cell vector modules (Ang)   :   20.000000   20.000000   20.000000
outcell: Cell angles (23,13,12) (deg):     90.0000     90.0000     90.0000
outcell: Cell volume (Ang**3)        :   8000.0000
<dSpData1D:S at geom step 13
  <sparsity:sparsity for geom step 13
    nrows_g=121 nrows=121 sparsity=.9980 nnzs=14611, refcount: 7>
  <dData1D:(new from dSpData1D) n=14611, refcount: 1>
refcount: 1>
new_DM -- step:    14
Re-using DM from previous geometries...
Number of DMs in history: 1
 DM extrapolation coefficients: 
1   1.00000
New DM after history re-use:
<dSpData2D:SpM extrapolated using coords
  <sparsity:sparsity for geom step 13
    nrows_g=121 nrows=121 sparsity=.9980 nnzs=14611, refcount: 8>
  <dData2D:(temp array for extrapolation) n=14611 m=1, refcount: 1>
refcount: 1>
No. of atoms with KB's overlaping orbs in proc 0. Max # of overlaps:      13     117
New grid distribution:   1
           1       1:  108    1:  108    1:  108

InitMesh: MESH =   216 x   216 x   216 =    10077696
InitMesh: (bp) =   108 x   108 x   108 =     1259712
InitMesh: Mesh cutoff (required, used) =   300.000   322.366 Ry
ExtMesh (bp) on 0 =   188 x   188 x   188 =     6644672
PhiOnMesh: Number of (b)points on node 0 =              1259712
PhiOnMesh: nlist on node 0 =              2631272

        iscf     Eharris(eV)        E_KS(eV)     FreeEng(eV)     dDmax    Ef(eV) dHmax(eV)
   scf:    1    -1515.756935    -1515.718020    -1515.718020  0.004991 -3.059806  0.038634
   scf:    2    -1515.716759    -1515.717678    -1515.717678  0.001665 -3.066395  0.092138
   scf:    3    -1515.718200    -1515.718090    -1515.718090  0.001219 -3.061235  0.005797
   scf:    4    -1515.718092    -1515.718091    -1515.718091  0.000058 -3.061133  0.003704
   scf:    5    -1515.718093    -1515.718092    -1515.718092  0.000095 -3.061015  0.000473

SCF Convergence by DM+H criterion
max |DM_out - DM_in|         :     0.0000952686
max |H_out - H_in|      (eV) :     0.0004734685
SCF cycle converged after 5 iterations

Using DM_out to compute the final energy and forces
No. of atoms with KB's overlaping orbs in proc 0. Max # of overlaps:      13     117

siesta: E_KS(eV) =            -1515.7181

siesta: Atomic forces (eV/Ang):
----------------------------------------
   Tot   -0.020790    0.013275   -0.000000
----------------------------------------
   Max    0.208792
   Res    0.076463    sqrt( Sum f_i^2 / 3N )
----------------------------------------
   Max    0.208792    constrained

Stress-tensor-Voigt (kbar):       -0.01        0.20        0.00        0.00        0.00        0.00
(Free)E + p*V (eV/cell)    -1516.0496
Target enthalpy (eV/cell)    -1515.7181

                     ====================================
                        Begin FIRE opt. move =     14
                     ====================================

outcoor: Atomic coordinates (Ang):                          
    2.18604379    1.10116854   -0.00000000   1       1  C.gga
    3.41108424    1.80808188   -0.00000000   1       2  C.gga
    3.43120667    3.21647074    0.00000000   1       3  C.gga
    2.21847333    3.94226978   -0.00000000   1       4  C.gga
    0.98293893    3.24473398    0.00000000   1       5  C.gga
    0.97847624    1.82710154    0.00000000   1       6  C.gga
    1.42238993    5.72230809    0.00000000   2       7  H.gga
[...]
    2.22314386    3.93813652   -0.00000000   1       4  C.gga
    0.98930202    3.24653853   -0.00000000   1       5  C.gga
    0.97660925    1.83665253   -0.00000000   1       6  C.gga
    1.38539462    5.66913056   -0.00000001   2       7  H.gga
    2.17118498    0.00350109    0.00000000   2       8  H.gga
    4.36841817    1.24882832    0.00000000   2       9  H.gga
    4.39554298    3.77822265    0.00000000   2      10  H.gga
    0.03885354    3.81894595   -0.00000000   2      11  H.gga
    0.00566342    1.30323717    0.00000000   2      12  H.gga
    2.29653780    5.31615121   -0.00000000   3      13  O.gga

outcell: Unit cell vectors (Ang):
       20.000000    0.000000    0.000000
        0.000000   20.000000    0.000000
        0.000000    0.000000   20.000000

outcell: Cell vector modules (Ang)   :   20.000000   20.000000   20.000000
outcell: Cell angles (23,13,12) (deg):     90.0000     90.0000     90.0000
outcell: Cell volume (Ang**3)        :   8000.0000
<dSpData1D:S at geom step 73
  <sparsity:sparsity for geom step 73
    nrows_g=121 nrows=121 sparsity=.9980 nnzs=14611, refcount: 7>
  <dData1D:(new from dSpData1D) n=14611, refcount: 1>
refcount: 1>
new_DM -- step:    74
Re-using DM from previous geometries...
Number of DMs in history: 1
 DM extrapolation coefficients: 
1   1.00000
New DM after history re-use:
<dSpData2D:SpM extrapolated using coords
  <sparsity:sparsity for geom step 73
    nrows_g=121 nrows=121 sparsity=.9980 nnzs=14611, refcount: 8>
  <dData2D:(temp array for extrapolation) n=14611 m=1, refcount: 1>
refcount: 1>
No. of atoms with KB's overlaping orbs in proc 0. Max # of overlaps:      13     117
New grid distribution:   1
           1       1:  108    1:  108    1:  108

InitMesh: MESH =   216 x   216 x   216 =    10077696
InitMesh: (bp) =   108 x   108 x   108 =     1259712
InitMesh: Mesh cutoff (required, used) =   300.000   322.366 Ry
ExtMesh (bp) on 0 =   188 x   188 x   188 =     6644672
PhiOnMesh: Number of (b)points on node 0 =              1259712
PhiOnMesh: nlist on node 0 =              2631224

        iscf     Eharris(eV)        E_KS(eV)     FreeEng(eV)     dDmax    Ef(eV) dHmax(eV)
   scf:    1    -1515.727508    -1515.726995    -1515.726995  0.000065 -3.093513  0.002559
   scf:    2    -1515.726990    -1515.726994    -1515.726994  0.000127 -3.093101  0.006225
   scf:    3    -1515.726996    -1515.726996    -1515.726996  0.000092 -3.093410  0.000053

SCF Convergence by DM+H criterion
max |DM_out - DM_in|         :     0.0000919220
max |H_out - H_in|      (eV) :     0.0000534792
SCF cycle converged after 3 iterations

Using DM_out to compute the final energy and forces
No. of atoms with KB's overlaping orbs in proc 0. Max # of overlaps:      13     117

siesta: E_KS(eV) =            -1515.7270

siesta: Atomic forces (eV/Ang):
----------------------------------------
   Tot   -0.045581    0.020375   -0.000000
----------------------------------------
   Max    0.022061
   Res    0.006690    sqrt( Sum f_i^2 / 3N )
----------------------------------------
   Max    0.022061    constrained

Stress-tensor-Voigt (kbar):       -0.00        0.01        0.00       -0.00        0.00        0.00
(Free)E + p*V (eV/cell)    -1515.7479
Target enthalpy (eV/cell)    -1515.7270

                     ====================================
                        Begin FIRE opt. move =     74
                     ====================================

outcoor: Atomic coordinates (Ang):                          
    2.18546851    1.11027187   -0.00000000   1       1  C.gga
    3.41280757    1.80965797    0.00000000   1       2  C.gga
    3.44081220    3.21787990    0.00000000   1       3  C.gga
    2.22308154    3.93818302   -0.00000000   1       4  C.gga
    0.98925273    3.24654034   -0.00000000   1       5  C.gga
    0.97656701    1.83664797   -0.00000000   1       6  C.gga
    1.38532210    5.66918146   -0.00000001   2       7  H.gga
    2.17124630    0.00349265    0.00000000   2       8  H.gga
    4.36841972    1.24890083    0.00000000   2       9  H.gga
    4.39555140    3.77821384    0.00000000   2      10  H.gga
    0.03875537    3.81889726   -0.00000000   2      11  H.gga
    0.00564643    1.30318520    0.00000000   2      12  H.gga
    2.29647391    5.31621090   -0.00000000   3      13  O.gga

outcell: Unit cell vectors (Ang):
       20.000000    0.000000    0.000000
        0.000000   20.000000    0.000000
        0.000000    0.000000   20.000000

outcell: Cell vector modules (Ang)   :   20.000000   20.000000   20.000000
outcell: Cell angles (23,13,12) (deg):     90.0000     90.0000     90.0000
outcell: Cell volume (Ang**3)        :   8000.0000
<dSpData1D:S at geom step 74
  <sparsity:sparsity for geom step 74
    nrows_g=121 nrows=121 sparsity=.9980 nnzs=14611, refcount: 7>
  <dData1D:(new from dSpData1D) n=14611, refcount: 1>
refcount: 1>
new_DM -- step:    75
Re-using DM from previous geometries...
Number of DMs in history: 1
 DM extrapolation coefficients: 
1   1.00000
New DM after history re-use:
<dSpData2D:SpM extrapolated using coords
  <sparsity:sparsity for geom step 74
    nrows_g=121 nrows=121 sparsity=.9980 nnzs=14611, refcount: 8>
  <dData2D:(temp array for extrapolation) n=14611 m=1, refcount: 1>
refcount: 1>
No. of atoms with KB's overlaping orbs in proc 0. Max # of overlaps:      13     117
New grid distribution:   1
           1       1:  108    1:  108    1:  108

InitMesh: MESH =   216 x   216 x   216 =    10077696
InitMesh: (bp) =   108 x   108 x   108 =     1259712
InitMesh: Mesh cutoff (required, used) =   300.000   322.366 Ry
ExtMesh (bp) on 0 =   188 x   188 x   188 =     6644672
PhiOnMesh: Number of (b)points on node 0 =              1259712
PhiOnMesh: nlist on node 0 =              2631262

        iscf     Eharris(eV)        E_KS(eV)     FreeEng(eV)     dDmax    Ef(eV) dHmax(eV)
   scf:    1    -1515.727552    -1515.727002    -1515.727002  0.000036 -3.093264  0.000492

SCF Convergence by DM+H criterion
max |DM_out - DM_in|         :     0.0000364820
max |H_out - H_in|      (eV) :     0.0004923223
SCF cycle converged after 1 iterations

Using DM_out to compute the final energy and forces
No. of atoms with KB's overlaping orbs in proc 0. Max # of overlaps:      13     117

siesta: E_KS(eV) =            -1515.7270

siesta: Atomic forces (eV/Ang):
----------------------------------------
   Tot   -0.045668    0.020211   -0.000000
----------------------------------------
   Max    0.021194
   Res    0.006386    sqrt( Sum f_i^2 / 3N )
----------------------------------------
   Max    0.021194    constrained

Stress-tensor-Voigt (kbar):       -0.00        0.01        0.00       -0.01       -0.00       -0.00
(Free)E + p*V (eV/cell)    -1515.7505
Target enthalpy (eV/cell)    -1515.7270

                     ====================================
                        Begin FIRE opt. move =     75
                     ====================================

outcoor: Atomic coordinates (Ang):                          
    2.18547764    1.11026619   -0.00000000   1       1  C.gga
    3.41275211    1.80970264    0.00000000   1       2  C.gga
    3.44079871    3.21791567    0.00000000   1       3  C.gga
    2.22298741    3.93823786   -0.00000000   1       4  C.gga
    0.98921820    3.24653489   -0.00000000   1       5  C.gga
    0.97650510    1.83665573   -0.00000000   1       6  C.gga
    1.38524078    5.66923666   -0.00000001   2       7  H.gga
    2.17131119    0.00348785    0.00000000   2       8  H.gga
    4.36842403    1.24897815    0.00000000   2       9  H.gga
    4.39555387    3.77820292    0.00000000   2      10  H.gga
    0.03864402    3.81884715   -0.00000000   2      11  H.gga
    0.00563092    1.30312988    0.00000000   2      12  H.gga
    2.29640804    5.31627133   -0.00000000   3      13  O.gga

outcell: Unit cell vectors (Ang):
       20.000000    0.000000    0.000000
        0.000000   20.000000    0.000000
        0.000000    0.000000   20.000000

outcell: Cell vector modules (Ang)   :   20.000000   20.000000   20.000000
outcell: Cell angles (23,13,12) (deg):     90.0000     90.0000     90.0000
outcell: Cell volume (Ang**3)        :   8000.0000
<dSpData1D:S at geom step 75
  <sparsity:sparsity for geom step 75
    nrows_g=121 nrows=121 sparsity=.9980 nnzs=14611, refcount: 7>
  <dData1D:(new from dSpData1D) n=14611, refcount: 1>
refcount: 1>
new_DM -- step:    76
Re-using DM from previous geometries...
Number of DMs in history: 1
 DM extrapolation coefficients: 
1   1.00000
New DM after history re-use:
<dSpData2D:SpM extrapolated using coords
  <sparsity:sparsity for geom step 75
    nrows_g=121 nrows=121 sparsity=.9980 nnzs=14611, refcount: 8>
  <dData2D:(temp array for extrapolation) n=14611 m=1, refcount: 1>
refcount: 1>
No. of atoms with KB's overlaping orbs in proc 0. Max # of overlaps:      13     117
New grid distribution:   1
           1       1:  108    1:  108    1:  108

InitMesh: MESH =   216 x   216 x   216 =    10077696
InitMesh: (bp) =   108 x   108 x   108 =     1259712
InitMesh: Mesh cutoff (required, used) =   300.000   322.366 Ry
ExtMesh (bp) on 0 =   188 x   188 x   188 =     6644672
PhiOnMesh: Number of (b)points on node 0 =              1259712
PhiOnMesh: nlist on node 0 =              2631282

        iscf     Eharris(eV)        E_KS(eV)     FreeEng(eV)     dDmax    Ef(eV) dHmax(eV)
   scf:    1    -1515.727576    -1515.727010    -1515.727010  0.000050 -3.093369  0.000456

SCF Convergence by DM+H criterion
max |DM_out - DM_in|         :     0.0000497667
max |H_out - H_in|      (eV) :     0.0004561945
SCF cycle converged after 1 iterations

Using DM_out to compute the final energy and forces
No. of atoms with KB's overlaping orbs in proc 0. Max # of overlaps:      13     117

siesta: E_KS(eV) =            -1515.7270

siesta: Atomic forces (eV/Ang):
----------------------------------------
   Tot   -0.045670    0.020710   -0.000000
----------------------------------------
   Max    0.016997
   Res    0.005292    sqrt( Sum f_i^2 / 3N )
----------------------------------------
   Max    0.016997    constrained

Stress-tensor-Voigt (kbar):       -0.00        0.01        0.00       -0.01        0.00       -0.00
(Free)E + p*V (eV/cell)    -1515.7537
Target enthalpy (eV/cell)    -1515.7270

                     ====================================
                        Begin FIRE opt. move =     76
                     ====================================

outcoor: Atomic coordinates (Ang):                          
    2.18550717    1.11025474   -0.00000000   1       1  C.gga
    3.41267373    1.80976228    0.00000000   1       2  C.gga
    3.44079497    3.21795296    0.00000000   1       3  C.gga
    2.22285327    3.93830634   -0.00000000   1       4  C.gga
    0.98919226    3.24652259   -0.00000000   1       5  C.gga
    0.97641935    1.83667481   -0.00000000   1       6  C.gga
    1.38514048    5.66930313   -0.00000001   2       7  H.gga
    2.17138741    0.00348668    0.00000000   2       8  H.gga
    4.36843021    1.24907068    0.00000000   2       9  H.gga
    4.39554949    3.77818877    0.00000000   2      10  H.gga
    0.03850697    3.81878865   -0.00000000   2      11  H.gga
    0.00561454    1.30306466    0.00000000   2      12  H.gga
    2.29633037    5.31633894   -0.00000000   3      13  O.gga

outcell: Unit cell vectors (Ang):
       20.000000    0.000000    0.000000
        0.000000   20.000000    0.000000
        0.000000    0.000000   20.000000

outcell: Cell vector modules (Ang)   :   20.000000   20.000000   20.000000
outcell: Cell angles (23,13,12) (deg):     90.0000     90.0000     90.0000
outcell: Cell volume (Ang**3)        :   8000.0000
<dSpData1D:S at geom step 76
  <sparsity:sparsity for geom step 76
    nrows_g=121 nrows=121 sparsity=.9980 nnzs=14611, refcount: 7>
  <dData1D:(new from dSpData1D) n=14611, refcount: 1>
refcount: 1>
new_DM -- step:    77
Re-using DM from previous geometries...
Number of DMs in history: 1
 DM extrapolation coefficients: 
1   1.00000
New DM after history re-use:
<dSpData2D:SpM extrapolated using coords
  <sparsity:sparsity for geom step 76
    nrows_g=121 nrows=121 sparsity=.9980 nnzs=14611, refcount: 8>
  <dData2D:(temp array for extrapolation) n=14611 m=1, refcount: 1>
refcount: 1>
No. of atoms with KB's overlaping orbs in proc 0. Max # of overlaps:      13     117
New grid distribution:   1
           1       1:  108    1:  108    1:  108

InitMesh: MESH =   216 x   216 x   216 =    10077696
InitMesh: (bp) =   108 x   108 x   108 =     1259712
InitMesh: Mesh cutoff (required, used) =   300.000   322.366 Ry
ExtMesh (bp) on 0 =   188 x   188 x   188 =     6644672
PhiOnMesh: Number of (b)points on node 0 =              1259712
PhiOnMesh: nlist on node 0 =              2631330

        iscf     Eharris(eV)        E_KS(eV)     FreeEng(eV)     dDmax    Ef(eV) dHmax(eV)
   scf:    1    -1515.727645    -1515.727019    -1515.727019  0.000079 -3.093235  0.001326
   scf:    2    -1515.727016    -1515.727018    -1515.727018  0.000071 -3.093674  0.003340
   scf:    3    -1515.727019    -1515.727019    -1515.727019  0.000048 -3.093406  0.000077

SCF Convergence by DM+H criterion
max |DM_out - DM_in|         :     0.0000475092
max |H_out - H_in|      (eV) :     0.0000771453
SCF cycle converged after 3 iterations

Using DM_out to compute the final energy and forces
No. of atoms with KB's overlaping orbs in proc 0. Max # of overlaps:      13     117

siesta: E_KS(eV) =            -1515.7270

siesta: Atomic forces (eV/Ang):
----------------------------------------
   Tot   -0.045953    0.020843    0.000000
----------------------------------------
   Max    0.009540
   Res    0.003937    sqrt( Sum f_i^2 / 3N )
----------------------------------------
   Max    0.009540    constrained

Stress-tensor-Voigt (kbar):       -0.00        0.01        0.00       -0.01       -0.00       -0.00
(Free)E + p*V (eV/cell)    -1515.7567
Target enthalpy (eV/cell)    -1515.7270

outcoor: Relaxed atomic coordinates (Ang):                  
    2.18550717    1.11025474   -0.00000000   1       1  C.gga
    3.41267373    1.80976228    0.00000000   1       2  C.gga
    3.44079497    3.21795296    0.00000000   1       3  C.gga
    2.22285327    3.93830634   -0.00000000   1       4  C.gga
    0.98919226    3.24652259   -0.00000000   1       5  C.gga
    0.97641935    1.83667481   -0.00000000   1       6  C.gga
    1.38514048    5.66930313   -0.00000001   2       7  H.gga
    2.17138741    0.00348668    0.00000000   2       8  H.gga
    4.36843021    1.24907068    0.00000000   2       9  H.gga
    4.39554949    3.77818877    0.00000000   2      10  H.gga
    0.03850697    3.81878865   -0.00000000   2      11  H.gga
    0.00561454    1.30306466    0.00000000   2      12  H.gga
    2.29633037    5.31633894   -0.00000000   3      13  O.gga

coxmol: Writing XMOL coordinates into file Phenol.xyz                                                          

siesta: Program's energy decomposition (eV):
siesta: Ebs     =      -459.037445
siesta: Eions   =      2250.705553
siesta: Ena     =       437.881118
siesta: Ekin    =      1024.192441
siesta: Enl     =      -188.595476
siesta: Eso     =         0.000000
siesta: Eldau   =         0.000000
siesta: DEna    =       -44.901647
siesta: DUscf   =         5.317776
siesta: DUext   =         0.000000
siesta: Exc     =      -498.915678
siesta: eta*DQ  =         0.000000
siesta: Emadel  =         0.000000
siesta: Emeta   =         0.000000
siesta: Emolmec =         0.000000
siesta: Ekinion =         0.000000
siesta: Eharris =     -1515.727019
siesta: Etot    =     -1515.727019
siesta: FreeEng =     -1515.727019

siesta: Final energy (eV):
siesta:  Band Struct. =    -459.037445
siesta:       Kinetic =    1024.192441
siesta:       Hartree =    3565.462467
siesta:       Eldau   =       0.000000
siesta:       Eso     =       0.000000
siesta:    Ext. field =       0.000000
siesta:   Exch.-corr. =    -498.915678
siesta:  Ion-electron =   -8042.657699
siesta:       Ion-ion =    2436.191451
siesta:       Ekinion =       0.000000
siesta:         Total =   -1515.727019
siesta:         Fermi =      -3.093406

siesta: Stress tensor (static) (eV/Ang**3):
siesta:    -0.000000   -0.000005    0.000000
siesta:    -0.000005    0.000008    0.000000
siesta:    -0.000000   -0.000000    0.000003

siesta: Cell volume =       8000.000000 Ang**3

siesta: Pressure (static):
siesta:                Solid            Molecule  Units
siesta:          -0.00000004         -0.00000005  Ry/Bohr**3
siesta:          -0.00000371         -0.00000473  eV/Ang**3
siesta:          -0.00594990         -0.00757249  kBar
(Free)E+ p_basis*V_orbitals  =       -1508.493294
(Free)Eharris+ p_basis*V_orbitals  =       -1508.493294

siesta: Electric dipole (a.u.)  =   -0.453762    0.074369   -0.000000
siesta: Electric dipole (Debye) =   -1.153349    0.189028   -0.000000

timer: Elapsed wall time (sec) =    1594.886
timer: CPU execution times (sec):

Routine            Calls   Time/call    Tot.time        %
siesta                 1    1594.886    1594.886   100.00
Setup                  1       0.413       0.413     0.03
bands                  1       0.000       0.000     0.00
KSV_init               1       0.000       0.000     0.00
IterGeom              77      20.707    1594.457    99.97
state_init            77       0.013       1.008     0.06
hsparse               77       0.001       0.049     0.00
overlap               77       0.011       0.830     0.05
Setup_H0              77       3.006     231.482    14.51
naefs                154       0.000       0.012     0.00
MolMec               154       0.000       0.000     0.00
kinefsm              154       0.008       1.266     0.08
nlefsm               154       0.044       6.803     0.43
DHSCF_Init            77       2.948     227.000    14.23
DHSCF1                77       0.083       6.356     0.40
INITMESH              77       0.000       0.006     0.00
DHSCF2                77       2.865     220.643    13.83
REMESH                77       0.098       7.554     0.47
REORD               2083       0.016      34.104     2.14
PHION                 77       1.681     129.414     8.11
COMM_BSC            1159       0.017      19.591     1.23
POISON               541       0.759     410.709    25.75
fft                 1082       0.298     322.771    20.24
IterSCF              310       3.040     942.303    59.08
setup_H              387       2.428     939.581    58.91
DHSCF                464       2.908    1349.412    84.61
DHSCF3               464       2.416    1121.212    70.30
rhoofd               464       0.345     159.962    10.03
CellXC               464       0.885     410.600    25.74
cellXC               464       0.885     410.594    25.74
vmat                 464       0.218     101.075     6.34
compute_dm           310       0.006       1.951     0.12
diagon               310       0.005       1.681     0.11
r-eigvec             310       0.005       1.482     0.09
r-buildHS            310       0.000       0.023     0.00
rdiag                310       0.005       1.458     0.09
rdiag1               310       0.000       0.087     0.01
rdiag2               310       0.001       0.206     0.01
rdiag3               310       0.003       0.986     0.06
rdiag4               310       0.001       0.173     0.01
r-buildD             310       0.000       0.150     0.01
MIXER                233       0.000       0.096     0.01
PostSCF               77       5.444     419.204    26.28
DHSCF4                77       2.964     228.199    14.31
dfscf                 77       2.487     191.483    12.01
overfsm               77       0.005       0.356     0.02
state_analysis        77       0.002       0.192     0.01
siesta_move           77       0.001       0.082     0.01
Analysis               1       0.004       0.004     0.00
optical                1       0.000       0.000     0.00
  
>> End of run:  22-MAR-2019  11:11:49
Job completed
